------------------------------------------------------------
          Invoking FHI-aims ...

          When using FHI-aims, please cite the following reference:

            Volker Blum, Ralf Gehrke, Felix Hanke, Paula Havu,
            Ville Havu, Xinguo Ren, Karsten Reuter, and Matthias Scheffler,
            'Ab Initio Molecular Simulations with Numeric Atom-Centered Orbitals',
            Computer Physics Communications 180, 2175-2196 (2009)

          In addition, many other developments in FHI-aims are likely important for
          your particular application. A partial list of references is given at the end of
          this file. Thank you for giving credit to the authors of these developments.

          For any questions about FHI-aims, please visit our slack channel at

            https://fhi-aims.slack.com

          and our main development and support site at

            https://aims-git.rz-berlin.mpg.de .

          The latter site, in particular, has a wiki to collect information, as well
          as an issue tracker to log discussions, suggest improvements, and report issues
          or bugs. https://aims-git.rz-berlin.mpg.de is also the main development site
          of the project and all new and updated code versions can be obtained there.
          Please send an email to aims-coordinators@fhi-berlin.mpg.de and we will add
          you to these sites. They are for you and everyone is welcome there.

------------------------------------------------------------



  Date     :  20231222, Time     :  001711.845
  Time zero on CPU 1             :   0.121126900000000E+01  s.
  Internal wall clock time zero  :           472436231.845  s.

  FHI-aims created a unique identifier for this run for later identification
  aims_uuid : C877704A-1F94-4DDB-A0DE-F15F4FE53F6D

  Build configuration of the current instance of FHI-aims
  -------------------------------------------------------
  FHI-aims version      : 220821
  Commit number         : GITDIR-NOTFOUND
  CMake host system     : Linux-3.10.0-1160.59.1.el7.x86_64
  CMake version         : 3.15.4
  Fortran compiler      : /opt/intel/oneapi/mpi/2021.6.0/bin/mpiifort (Intel) version 20.2.6.20220226
  Fortran compiler flags: -O3 -ip -fp-model precise -O3
  C compiler            : /opt/intel/oneapi/compiler/2022.1.0/linux/bin/intel64/icc (Intel) version 20.2.6.20220226
  C compiler flags      : -O3 -ip -fp-model precise -std=gnu99 -O3 -DNDEBUG
  Using MPI
  Using ScaLAPACK
  Using LibXC
  Using i-PI
  Using RLSY
  Linking against: /opt/intel/oneapi/mkl/2022.1.0/lib/intel64/libmkl_intel_lp64.so
                   /opt/intel/oneapi/mkl/2022.1.0/lib/intel64/libmkl_sequential.so
                   /opt/intel/oneapi/mkl/2022.1.0/lib/intel64/libmkl_core.so
                   /opt/intel/oneapi/mkl/2022.1.0/lib/intel64/libmkl_blacs_intelmpi_lp64.so
                   /opt/intel/oneapi/mkl/2022.1.0/lib/intel64/libmkl_scalapack_lp64.so

  Using       64 parallel tasks.
  Task        0 on host node013.cluster reporting.
  Task        1 on host node013.cluster reporting.
  Task        2 on host node013.cluster reporting.
  Task        3 on host node013.cluster reporting.
  Task        4 on host node013.cluster reporting.
  Task        5 on host node013.cluster reporting.
  Task        6 on host node013.cluster reporting.
  Task        7 on host node013.cluster reporting.
  Task        8 on host node013.cluster reporting.
  Task        9 on host node013.cluster reporting.
  Task       10 on host node013.cluster reporting.
  Task       11 on host node013.cluster reporting.
  Task       12 on host node013.cluster reporting.
  Task       13 on host node013.cluster reporting.
  Task       14 on host node013.cluster reporting.
  Task       15 on host node013.cluster reporting.
  Task       16 on host node013.cluster reporting.
  Task       17 on host node013.cluster reporting.
  Task       18 on host node013.cluster reporting.
  Task       19 on host node013.cluster reporting.
  Task       20 on host node013.cluster reporting.
  Task       21 on host node013.cluster reporting.
  Task       22 on host node013.cluster reporting.
  Task       23 on host node013.cluster reporting.
  Task       24 on host node013.cluster reporting.
  Task       25 on host node013.cluster reporting.
  Task       26 on host node013.cluster reporting.
  Task       27 on host node013.cluster reporting.
  Task       28 on host node013.cluster reporting.
  Task       29 on host node013.cluster reporting.
  Task       30 on host node013.cluster reporting.
  Task       31 on host node013.cluster reporting.
  Task       32 on host node013.cluster reporting.
  Task       33 on host node013.cluster reporting.
  Task       34 on host node013.cluster reporting.
  Task       35 on host node013.cluster reporting.
  Task       36 on host node013.cluster reporting.
  Task       37 on host node013.cluster reporting.
  Task       38 on host node013.cluster reporting.
  Task       39 on host node013.cluster reporting.
  Task       40 on host node013.cluster reporting.
  Task       41 on host node013.cluster reporting.
  Task       42 on host node013.cluster reporting.
  Task       43 on host node013.cluster reporting.
  Task       44 on host node013.cluster reporting.
  Task       45 on host node013.cluster reporting.
  Task       46 on host node013.cluster reporting.
  Task       47 on host node013.cluster reporting.
  Task       48 on host node013.cluster reporting.
  Task       49 on host node013.cluster reporting.
  Task       50 on host node013.cluster reporting.
  Task       51 on host node013.cluster reporting.
  Task       52 on host node013.cluster reporting.
  Task       53 on host node013.cluster reporting.
  Task       54 on host node013.cluster reporting.
  Task       55 on host node013.cluster reporting.
  Task       56 on host node013.cluster reporting.
  Task       57 on host node013.cluster reporting.
  Task       58 on host node013.cluster reporting.
  Task       59 on host node013.cluster reporting.
  Task       60 on host node013.cluster reporting.
  Task       61 on host node013.cluster reporting.
  Task       62 on host node013.cluster reporting.
  Task       63 on host node013.cluster reporting.

  Performing system and environment tests:
  | Environment variable OMP_NUM_THREADS correctly set to 1.
  | Checking for ScaLAPACK...
  | Testing pdtran()...
  | All pdtran() tests passed.

  Obtaining array dimensions for all initial allocations:
  
  -----------------------------------------------------------------------
  Parsing control.in (first pass over file, find array dimensions only).
  The contents of control.in will be repeated verbatim below
  unless switched off by setting 'verbatim_writeout .false.' .
  in the first line of control.in .
  -----------------------------------------------------------------------
  
  #===============================================================================
  # FHI-aims file: /nethome/draij004/aims_runs/5-PdAu-project/20-12-2023-PdAu-slab-models/20-12-2023-model-2/20-12-2023-bare-surface-pbe-light/control.in
  # Created using the Atomic Simulation Environment (ASE)
  # Wed Dec 20 17:21:48 2023
  #===============================================================================
  xc                                 pbe
  vdw_correction_hirshfeld
  relativistic                       atomic_zora scalar
  output_level                       normal
  relax_geometry                     trm 5e-3
  k_grid                             7 7 1
  sc_accuracy_rho                    1e-06
  sc_accuracy_etot                   1e-06
  #===============================================================================
  
  ################################################################################
  #
  #  FHI-aims code project
  #  Volker Blum, Fritz Haber Institute Berlin, 2009
  #
  #  Suggested "tight" defaults for Au atom (to be pasted into control.in file)
  #
  #  Feb. 16, 2013: Commented out the "h" basis function from tier 1 in the default.
  #                 Au is the only element to have this, and it usually does not
  #                 make a difference. With the advent of hybrid functionals, the
  #                 extra effort is critical.
  #
  ################################################################################
    species        Au
  #     global species definitions
      nucleus             79
      mass                196.966569
  #
      l_hartree           6
  #
      cut_pot             4.0  2.0  1.0
      basis_dep_cutoff    1e-4
  #
      radial_base         73 7.0
      radial_multiplier   2
      angular_grids specified
        division   0.3416   50
        division   0.7206  110
        division   1.1171  194
        division   1.2821  302
        division   1.5560  434
  #      division   2.1046  590
  #      division   2.2363  770
  #      division   2.2710  974
  #      division   2.8078 1202
  #      outer_grid 1202
        outer_grid  434
   ################################################################################
  #
  #  Definition of "minimal" basis
  #
  ################################################################################
  #     valence basis states
      valence      6  s   1.
      valence      5  p   6.
      valence      5  d  10.
      valence      4  f  14.
  #     ion occupancy
      ion_occ     6  s   0.
      ion_occ     5  p   6.
      ion_occ     5  d   9.
      ion_occ     4  f   14.
  ################################################################################
  #
  #  Suggested additional basis functions. For production calculations,
  #  uncomment them one after another (the most important basis functions are
  #  listed first).
  #
  #  Constructed for dimers: 2.10, 2.45, 3.00, 4.00 AA
  #
  ################################################################################
  #  "First tier" - max. impr. -161.60  meV, min. impr. -4.53 meV
       ionic 6 p auto
       hydro 4 f 7.4
       ionic 6 s auto
       hydro 5 g 10
       hydro 6 h 12.8
       hydro 3 d 2.5
  #  "Second tier" - max. impr. -2.46  meV, min. impr. -0.28 meV
  #     hydro 5 f 14.8
  #     hydro 4 d 3.9
  #     hydro 3 p 3.3
  #     hydro 1 s 0.45
  #     hydro 5 g 16.4
  #     hydro 6 h 13.6
  #  "Third tier" - max. impr. -0.49  meV, min. impr. -0.09 meV
  #     hydro 4 f 5.2
  #     hydro 4 d 5
  #     hydro 5 g 8
  #     hydro 5 p 8.2
  #     hydro 6 d 12.4
  #     hydro 6 s 14.8
  #  Further basis functions: -0.08 meV and below
  #     hydro 5 f 18.8
  #     hydro 5 g 20
  #    hydro 5 g 15.2
  ################################################################################
  #
  #  FHI-aims code project
  #  Volker Blum, Fritz Haber Institute Berlin, 2009
  #
  #  Suggested "tight" defaults for Pd atom (to be pasted into control.in file)
  #
  ################################################################################
    species        Pd
  #     global species definitions
      nucleus             46
      mass                106.42
  #
      l_hartree           6
  #
      cut_pot             4.0  2.0  1.0
      basis_dep_cutoff    1e-4
  #
      radial_base         62 7.0
      radial_multiplier   2
      angular_grids specified
        division   0.3627   50
        division   0.7349  110
        division   1.0624  194
        division   1.2496  302
        division   1.6740  434
  #      division   2.0126  590
  #      division   2.0830  770
  #      division   2.7936 1202
  #       outer_grid  974
        outer_grid  434
  ################################################################################
  #
  #  Definition of "minimal" basis
  #
  ################################################################################
  #     valence basis states
      valence      5  s   1.
      valence      4  p   6.
      valence      4  d   9.
  #     ion occupancy
      ion_occ     5  s   0.
      ion_occ     4  p   6.
      ion_occ     4  d   8.
  ################################################################################
  #
  #  Suggested additional basis functions. For production calculations,
  #  uncomment them one after another (the most important basis functions are
  #  listed first).
  #
  #  Constructed for dimers: 2.0 A, 2.275 A, 2.75 A, 3.75 A
  #
  ################################################################################
  #  "First tier" - max. impr. -120.76  meV, min. impr. -5.71 meV
       ionic 5 p auto
       hydro 4 f 8
       hydro 5 g 10
       hydro 3 s 2.6
       hydro 3 d 2.5
  #  "Second tier" - max. impr. -5.00  meV, min. impr. -0.62 meV
  #     hydro 5 f 17.2
  #     hydro 6 h 14
  #     hydro 4 d 4
  #     hydro 5 f 7.6
  #     hydro 3 p 3.3
  #     hydro 4 s 9.4
  #  "Third tier" - max. impr. -0.54  meV, min. impr. -0.14 meV
  #     hydro 4 f 20
  #     hydro 5 g 12.8
  #     hydro 5 d 9.8
  #     hydro 6 h 15.2
  #     hydro 5 s 10
  #     hydro 6 p 9.8
  #  "Fourth tier" - max. impr. -0.15  meV, min. impr. -0.05 meV
  #     hydro 5 f 9.2
  #     hydro 2 s 5.6
  #     hydro 5 f 43.2
  #     hydro 5 d 13.2
  #     hydro 5 g 14
  #     hydro 4 p 4.7
  
  -----------------------------------------------------------------------
  Completed first pass over input file control.in .
  -----------------------------------------------------------------------
  
  
  -----------------------------------------------------------------------
  Parsing geometry.in (first pass over file, find array dimensions only).
  The contents of geometry.in will be repeated verbatim below
  unless switched off by setting 'verbatim_writeout .false.' .
  in the first line of geometry.in .
  -----------------------------------------------------------------------
  
  #
  # This is the geometry file that corresponds to the current relaxation step.
  # If you do not want this file to be written, set the "write_restart_geometry" flag to .false.
  #  aims_uuid : 40F1CF46-CDC5-4ED7-AA11-81FFDD744E58
  #
  lattice_vector     11.53627020      0.00000000      0.00000000
  lattice_vector      5.76813510      9.99070306      0.00000000
  lattice_vector      0.00000000      0.00000000     41.77415647
  atom       1.44203378      0.83255859      0.00000000 Au
    constrain_relaxation .true.
  atom       4.32610133      0.83255859      0.00000000 Pd
    constrain_relaxation .true.
  atom       7.21016888      0.83255859      0.00000000 Au
    constrain_relaxation .true.
  atom      10.09423643      0.83255859      0.00000000 Au
    constrain_relaxation .true.
  atom       2.88406755      3.33023435      0.00000000 Au
    constrain_relaxation .true.
  atom       5.76813510      3.33023435      0.00000000 Au
    constrain_relaxation .true.
  atom       8.65220265      3.33023435      0.00000000 Au
    constrain_relaxation .true.
  atom      11.53627020      3.33023435      0.00000000 Au
    constrain_relaxation .true.
  atom       4.32610133      5.82791012      0.00000000 Au
    constrain_relaxation .true.
  atom       7.21016888      5.82791012      0.00000000 Pd
    constrain_relaxation .true.
  atom      10.09423643      5.82791012      0.00000000 Au
    constrain_relaxation .true.
  atom      12.97830398      5.82791012      0.00000000 Au
    constrain_relaxation .true.
  atom       5.76813510      8.32558588      0.00000000 Au
    constrain_relaxation .true.
  atom       8.65220265      8.32558588      0.00000000 Pd
    constrain_relaxation .true.
  atom      11.53627020      8.32558588      0.00000000 Pd
    constrain_relaxation .true.
  atom      14.42033775      8.32558588      0.00000000 Pd
    constrain_relaxation .true.
  atom       0.00000000      1.66511718      2.35483129 Au
    constrain_relaxation .true.
  atom       2.88406755      1.66511718      2.35483129 Pd
    constrain_relaxation .true.
  atom       5.76813510      1.66511718      2.35483129 Au
    constrain_relaxation .true.
  atom       8.65220265      1.66511718      2.35483129 Au
    constrain_relaxation .true.
  atom       1.44203378      4.16279294      2.35483129 Au
    constrain_relaxation .true.
  atom       4.32610133      4.16279294      2.35483129 Au
    constrain_relaxation .true.
  atom       7.21016888      4.16279294      2.35483129 Au
    constrain_relaxation .true.
  atom      10.09423643      4.16279294      2.35483129 Pd
    constrain_relaxation .true.
  atom       2.88406755      6.66046871      2.35483129 Au
    constrain_relaxation .true.
  atom       5.76813510      6.66046871      2.35483129 Au
    constrain_relaxation .true.
  atom       8.65220265      6.66046871      2.35483129 Au
    constrain_relaxation .true.
  atom      11.53627020      6.66046871      2.35483129 Pd
    constrain_relaxation .true.
  atom       4.32610133      9.15814447      2.35483129 Au
    constrain_relaxation .true.
  atom       7.21016888      9.15814447      2.35483129 Au
    constrain_relaxation .true.
  atom      10.09423643      9.15814447      2.35483129 Au
    constrain_relaxation .true.
  atom      12.97830398      9.15814447      2.35483129 Pd
    constrain_relaxation .true.
  atom       0.00000000      0.00000000      4.70966259 Au
    constrain_relaxation .true.
  atom       2.88406755      0.00000000      4.70966259 Au
    constrain_relaxation .true.
  atom       5.76813510      0.00000000      4.70966259 Au
    constrain_relaxation .true.
  atom       8.65220265      0.00000000      4.70966259 Au
    constrain_relaxation .true.
  atom       1.44203378      2.49767576      4.70966259 Pd
    constrain_relaxation .true.
  atom       4.32610133      2.49767576      4.70966259 Au
    constrain_relaxation .true.
  atom       7.21016888      2.49767576      4.70966259 Au
    constrain_relaxation .true.
  atom      10.09423643      2.49767576      4.70966259 Au
    constrain_relaxation .true.
  atom       2.88406755      4.99535153      4.70966259 Pd
    constrain_relaxation .true.
  atom       5.76813510      4.99535153      4.70966259 Pd
    constrain_relaxation .true.
  atom       8.65220265      4.99535153      4.70966259 Au
    constrain_relaxation .true.
  atom      11.53627020      4.99535153      4.70966259 Au
    constrain_relaxation .true.
  atom       4.32610133      7.49302729      4.70966259 Pd
    constrain_relaxation .true.
  atom       7.21016888      7.49302729      4.70966259 Pd
    constrain_relaxation .true.
  atom      10.09423643      7.49302729      4.70966259 Au
    constrain_relaxation .true.
  atom      12.97830398      7.49302729      4.70966259 Au
    constrain_relaxation .true.
  atom       1.44203378      0.83255859      7.06449388 Au
    constrain_relaxation .true.
  atom       4.32610133      0.83255859      7.06449388 Au
    constrain_relaxation .true.
  atom       7.21016888      0.83255859      7.06449388 Au
    constrain_relaxation .true.
  atom      10.09423643      0.83255859      7.06449388 Pd
    constrain_relaxation .true.
  atom       2.88406755      3.33023435      7.06449388 Au
    constrain_relaxation .true.
  atom       5.76813510      3.33023435      7.06449388 Pd
    constrain_relaxation .true.
  atom       8.65220265      3.33023435      7.06449388 Pd
    constrain_relaxation .true.
  atom      11.53627020      3.33023435      7.06449388 Au
    constrain_relaxation .true.
  atom       4.32610133      5.82791012      7.06449388 Pd
    constrain_relaxation .true.
  atom       7.21016888      5.82791012      7.06449388 Pd
    constrain_relaxation .true.
  atom      10.09423643      5.82791012      7.06449388 Pd
    constrain_relaxation .true.
  atom      12.97830398      5.82791012      7.06449388 Au
    constrain_relaxation .true.
  atom       5.76813510      8.32558588      7.06449388 Au
    constrain_relaxation .true.
  atom       8.65220265      8.32558588      7.06449388 Au
    constrain_relaxation .true.
  atom      11.53627020      8.32558588      7.06449388 Au
    constrain_relaxation .true.
  atom      14.42033775      8.32558588      7.06449388 Au
    constrain_relaxation .true.
  atom       0.00000000      1.66511718      9.41932518 Au
    constrain_relaxation .true.
  atom       2.88406755      1.66511718      9.41932518 Pd
    constrain_relaxation .true.
  atom       5.76813510      1.66511718      9.41932518 Au
    constrain_relaxation .true.
  atom       8.65220265      1.66511718      9.41932518 Pd
    constrain_relaxation .true.
  atom       1.44203378      4.16279294      9.41932518 Au
    constrain_relaxation .true.
  atom       4.32610133      4.16279294      9.41932518 Au
    constrain_relaxation .true.
  atom       7.21016888      4.16279294      9.41932518 Pd
    constrain_relaxation .true.
  atom      10.09423643      4.16279294      9.41932518 Au
    constrain_relaxation .true.
  atom       2.88406755      6.66046871      9.41932518 Au
    constrain_relaxation .true.
  atom       5.76813510      6.66046871      9.41932518 Au
    constrain_relaxation .true.
  atom       8.65220265      6.66046871      9.41932518 Au
    constrain_relaxation .true.
  atom      11.53627020      6.66046871      9.41932518 Pd
    constrain_relaxation .true.
  atom       4.32610133      9.15814447      9.41932518 Au
    constrain_relaxation .true.
  atom       7.21016888      9.15814447      9.41932518 Au
    constrain_relaxation .true.
  atom      10.09423643      9.15814447      9.41932518 Au
    constrain_relaxation .true.
  atom      12.97830398      9.15814447      9.41932518 Pd
    constrain_relaxation .true.
  atom       0.00294244      0.00259366     11.69792262 Pd
  atom       2.88309130      0.01196635     11.68604951 Pd
  atom       5.77906867     -0.00786546     11.67779377 Pd
  atom       8.64598686      0.01008633     11.66198501 Pd
  atom       1.45594104      2.49301848     11.69260037 Pd
  atom       4.31538571      2.49231837     11.68503465 Pd
  atom       7.21550656      2.50164975     11.66546224 Pd
  atom      10.08394095      2.49281287     11.67952753 Pd
  atom       2.87993618      4.99317053     11.69873169 Pd
  atom       5.77864969      4.99220656     11.68342332 Pd
  atom       8.64018361      4.98647710     11.68107381 Pd
  atom      11.53961363      5.00460764     11.68428971 Pd
  atom       4.32405840      7.49485838     11.70194293 Pd
  atom       7.20779364      7.49409387     11.70422427 Pd
  atom      10.10748034      7.49119126     11.68265273 Pd
  atom      12.96827083      7.49464112     11.67105232 Pd
  #
  # What follows is the current estimated Hessian matrix constructed by the BFGS algorithm.
  # This is NOT the true Hessian matrix of the system.
  # If you do not want this information here, switch it off using the "hessian_to_restart_geometry" keyword.
  #
  trust_radius             0.2000000030
  hessian_file
  
  -----------------------------------------------------------------------
  Completed first pass over input file geometry.in .
  -----------------------------------------------------------------------
  

  Basic array size parameters:
  | Number of species                 :        2
  | Number of atoms                   :       96
  | Number of lattice vectors         :        3
  | Max. basis fn. angular momentum   :        5
  | Max. atomic/ionic basis occupied n:        6
  | Max. number of basis fn. types    :        3
  | Max. radial fns per species/type  :       14
  | Max. logarithmic grid size        :     1488
  | Max. radial integration grid size :      147
  | Max. angular integration grid size:      434
  | Max. angular grid division number :        8
  | Radial grid for Hartree potential :     1488
  | Number of spin channels           :        1

------------------------------------------------------------
          Reading file control.in.
------------------------------------------------------------
  XC: Using PBE gradient-corrected functionals.
  Scalar relativistic treatment of kinetic energy: on-site free-atom approximation to ZORA.
  Requested output level: normal
  Geometry relaxation: Modified BFGS - TRM (trust radius method) for lattice optimization.
  Convergence accuracy for geometry relaxation: Maximum force <   0.500000E-02 eV/A.
  Found k-point grid:         7         7         1
  Convergence accuracy of self-consistent charge density:  0.1000E-05
  Convergence accuracy of total energy:  0.1000E-05
 
  Reading configuration options for species Au                  .
  | Found nuclear charge :  79.0000
  | Found atomic mass :    196.966569000000      amu
  | Found l_max for Hartree potential  :   6
  | Found cutoff potl. onset [A], width [A], scale factor :    4.00000    2.00000    1.00000
  | Threshold for basis-dependent cutoff potential is   0.100000E-03
  | Found data for basic radial integration grid :    73 points, outermost radius =    7.000 A
  | Found multiplier for basic radial grid :   2
  | Found angular grid specification: user-specified.
  | Specified grid contains     6 separate shells.
  | Check grid settings after all constraints further below.
  | Found free-atom valence shell :  6 s   1.000
  | Found free-atom valence shell :  5 p   6.000
  | Found free-atom valence shell :  5 d  10.000
  | Found free-atom valence shell :  4 f  14.000
  | Found free-ion valence shell :  6 s   0.000
  | Found free-ion valence shell :  5 p   6.000
  | Found free-ion valence shell :  5 d   9.000
  | Found free-ion valence shell :  4 f  14.000
  | Found ionic basis function :  6 p , default cutoff radius.
  | Found hydrogenic basis function :  4 f   7.400
  | Found ionic basis function :  6 s , default cutoff radius.
  | Found hydrogenic basis function :  5 g  10.000
  | Found hydrogenic basis function :  6 h  12.800
  | Found hydrogenic basis function :  3 d   2.500
  Species Au                  : Missing cutoff potential type.
  Defaulting to exp(1/x)/(1-x)^2 type cutoff potential.
  Species Au: No 'logarithmic' tag. Using default grid for free atom:
  | Default logarithmic grid data [bohr] : 0.1000E-03 0.1000E+03 0.1012E+01
  | Will include ionic basis functions of  2.0-fold positive Au                   ion.
  Species Au: On-site basis accuracy parameter (for Gram-Schmidt orthonormalisation) not specified.
  Using default value basis_acc =  0.1000000E-03.
  Species Au                  : Using default innermost maximum threshold i_radial=  2 for radial functions.
  Species Au                  : Default cutoff onset for free atom density etc. : 0.40000000E+01 AA.
  Species Au                  : Basic radial grid will be enhanced according to radial_multiplier =   2, to contain   147 grid points.
 
  Reading configuration options for species Pd                  .
  | Found nuclear charge :  46.0000
  | Found atomic mass :    106.420000000000      amu
  | Found l_max for Hartree potential  :   6
  | Found cutoff potl. onset [A], width [A], scale factor :    4.00000    2.00000    1.00000
  | Threshold for basis-dependent cutoff potential is   0.100000E-03
  | Found data for basic radial integration grid :    62 points, outermost radius =    7.000 A
  | Found multiplier for basic radial grid :   2
  | Found angular grid specification: user-specified.
  | Specified grid contains     6 separate shells.
  | Check grid settings after all constraints further below.
  | Found free-atom valence shell :  5 s   1.000
  | Found free-atom valence shell :  4 p   6.000
  | Found free-atom valence shell :  4 d   9.000
  | Found free-ion valence shell :  5 s   0.000
  | Found free-ion valence shell :  4 p   6.000
  | Found free-ion valence shell :  4 d   8.000
  | Found ionic basis function :  5 p , default cutoff radius.
  | Found hydrogenic basis function :  4 f   8.000
  | Found hydrogenic basis function :  5 g  10.000
  | Found hydrogenic basis function :  3 s   2.600
  | Found hydrogenic basis function :  3 d   2.500
  Species Pd                  : Missing cutoff potential type.
  Defaulting to exp(1/x)/(1-x)^2 type cutoff potential.
  Species Pd: No 'logarithmic' tag. Using default grid for free atom:
  | Default logarithmic grid data [bohr] : 0.1000E-03 0.1000E+03 0.1012E+01
  | Will include ionic basis functions of  2.0-fold positive Pd                   ion.
  Species Pd: On-site basis accuracy parameter (for Gram-Schmidt orthonormalisation) not specified.
  Using default value basis_acc =  0.1000000E-03.
  Species Pd                  : Using default innermost maximum threshold i_radial=  2 for radial functions.
  Species Pd                  : Default cutoff onset for free atom density etc. : 0.40000000E+01 AA.
  Species Pd                  : Basic radial grid will be enhanced according to radial_multiplier =   2, to contain   125 grid points.
 
  Finished reading input file 'control.in'.
 
------------------------------------------------------------


------------------------------------------------------------
          Reading geometry description geometry.in.
------------------------------------------------------------
  Found relaxation constraint for atom      1: All coordinates fixed.
  Found relaxation constraint for atom      2: All coordinates fixed.
  Found relaxation constraint for atom      3: All coordinates fixed.
  Found relaxation constraint for atom      4: All coordinates fixed.
  Found relaxation constraint for atom      5: All coordinates fixed.
  Found relaxation constraint for atom      6: All coordinates fixed.
  Found relaxation constraint for atom      7: All coordinates fixed.
  Found relaxation constraint for atom      8: All coordinates fixed.
  Found relaxation constraint for atom      9: All coordinates fixed.
  Found relaxation constraint for atom     10: All coordinates fixed.
  Found relaxation constraint for atom     11: All coordinates fixed.
  Found relaxation constraint for atom     12: All coordinates fixed.
  Found relaxation constraint for atom     13: All coordinates fixed.
  Found relaxation constraint for atom     14: All coordinates fixed.
  Found relaxation constraint for atom     15: All coordinates fixed.
  Found relaxation constraint for atom     16: All coordinates fixed.
  Found relaxation constraint for atom     17: All coordinates fixed.
  Found relaxation constraint for atom     18: All coordinates fixed.
  Found relaxation constraint for atom     19: All coordinates fixed.
  Found relaxation constraint for atom     20: All coordinates fixed.
  Found relaxation constraint for atom     21: All coordinates fixed.
  Found relaxation constraint for atom     22: All coordinates fixed.
  Found relaxation constraint for atom     23: All coordinates fixed.
  Found relaxation constraint for atom     24: All coordinates fixed.
  Found relaxation constraint for atom     25: All coordinates fixed.
  Found relaxation constraint for atom     26: All coordinates fixed.
  Found relaxation constraint for atom     27: All coordinates fixed.
  Found relaxation constraint for atom     28: All coordinates fixed.
  Found relaxation constraint for atom     29: All coordinates fixed.
  Found relaxation constraint for atom     30: All coordinates fixed.
  Found relaxation constraint for atom     31: All coordinates fixed.
  Found relaxation constraint for atom     32: All coordinates fixed.
  Found relaxation constraint for atom     33: All coordinates fixed.
  Found relaxation constraint for atom     34: All coordinates fixed.
  Found relaxation constraint for atom     35: All coordinates fixed.
  Found relaxation constraint for atom     36: All coordinates fixed.
  Found relaxation constraint for atom     37: All coordinates fixed.
  Found relaxation constraint for atom     38: All coordinates fixed.
  Found relaxation constraint for atom     39: All coordinates fixed.
  Found relaxation constraint for atom     40: All coordinates fixed.
  Found relaxation constraint for atom     41: All coordinates fixed.
  Found relaxation constraint for atom     42: All coordinates fixed.
  Found relaxation constraint for atom     43: All coordinates fixed.
  Found relaxation constraint for atom     44: All coordinates fixed.
  Found relaxation constraint for atom     45: All coordinates fixed.
  Found relaxation constraint for atom     46: All coordinates fixed.
  Found relaxation constraint for atom     47: All coordinates fixed.
  Found relaxation constraint for atom     48: All coordinates fixed.
  Found relaxation constraint for atom     49: All coordinates fixed.
  Found relaxation constraint for atom     50: All coordinates fixed.
  Found relaxation constraint for atom     51: All coordinates fixed.
  Found relaxation constraint for atom     52: All coordinates fixed.
  Found relaxation constraint for atom     53: All coordinates fixed.
  Found relaxation constraint for atom     54: All coordinates fixed.
  Found relaxation constraint for atom     55: All coordinates fixed.
  Found relaxation constraint for atom     56: All coordinates fixed.
  Found relaxation constraint for atom     57: All coordinates fixed.
  Found relaxation constraint for atom     58: All coordinates fixed.
  Found relaxation constraint for atom     59: All coordinates fixed.
  Found relaxation constraint for atom     60: All coordinates fixed.
  Found relaxation constraint for atom     61: All coordinates fixed.
  Found relaxation constraint for atom     62: All coordinates fixed.
  Found relaxation constraint for atom     63: All coordinates fixed.
  Found relaxation constraint for atom     64: All coordinates fixed.
  Found relaxation constraint for atom     65: All coordinates fixed.
  Found relaxation constraint for atom     66: All coordinates fixed.
  Found relaxation constraint for atom     67: All coordinates fixed.
  Found relaxation constraint for atom     68: All coordinates fixed.
  Found relaxation constraint for atom     69: All coordinates fixed.
  Found relaxation constraint for atom     70: All coordinates fixed.
  Found relaxation constraint for atom     71: All coordinates fixed.
  Found relaxation constraint for atom     72: All coordinates fixed.
  Found relaxation constraint for atom     73: All coordinates fixed.
  Found relaxation constraint for atom     74: All coordinates fixed.
  Found relaxation constraint for atom     75: All coordinates fixed.
  Found relaxation constraint for atom     76: All coordinates fixed.
  Found relaxation constraint for atom     77: All coordinates fixed.
  Found relaxation constraint for atom     78: All coordinates fixed.
  Found relaxation constraint for atom     79: All coordinates fixed.
  Found relaxation constraint for atom     80: All coordinates fixed.
 * Large trust radius value found - resetting to the current value of max_atomic_move,      0.20000000 A.
  Found keyword 'hessian_file', indicating that this is the continuation of a structure optimization.
  Verifying the existence of the file 'hessian.aims' on all processors
  | The smallest distance between any two atoms is         2.78723678 AA.
  | The first atom of this pair is atom number                     68 .
  | The second atom of this pair is atom number                    84 .
  | Wigner-Seitz cell of the first atom image           0     0     0 .
  | (The Wigner-Seitz cell of the second atom is 0 0 0  by definition.)

  Symmetry information by spglib:
  | Precision set to  0.1E-04
  | Number of Operations  : 1
  | Space group           : 1
  | International         : P1 1 665117
  | Schoenflies           : C1^1
  Input structure read successfully.
  The structure contains       96 atoms,  and a total of       6231.000 electrons.

  Input geometry:
  | Unit cell:
  |       11.53627020        0.00000000        0.00000000
  |        5.76813510        9.99070306        0.00000000
  |        0.00000000        0.00000000       41.77415647
  | Atomic structure:
  |       Atom                x [A]            y [A]            z [A]
  |    1: Species Au            1.44203378        0.83255859        0.00000000
  |    2: Species Pd            4.32610133        0.83255859        0.00000000
  |    3: Species Au            7.21016888        0.83255859        0.00000000
  |    4: Species Au           10.09423643        0.83255859        0.00000000
  |    5: Species Au            2.88406755        3.33023435        0.00000000
  |    6: Species Au            5.76813510        3.33023435        0.00000000
  |    7: Species Au            8.65220265        3.33023435        0.00000000
  |    8: Species Au           11.53627020        3.33023435        0.00000000
  |    9: Species Au            4.32610133        5.82791012        0.00000000
  |   10: Species Pd            7.21016888        5.82791012        0.00000000
  |   11: Species Au           10.09423643        5.82791012        0.00000000
  |   12: Species Au           12.97830398        5.82791012        0.00000000
  |   13: Species Au            5.76813510        8.32558588        0.00000000
  |   14: Species Pd            8.65220265        8.32558588        0.00000000
  |   15: Species Pd           11.53627020        8.32558588        0.00000000
  |   16: Species Pd           14.42033775        8.32558588        0.00000000
  |   17: Species Au            0.00000000        1.66511718        2.35483129
  |   18: Species Pd            2.88406755        1.66511718        2.35483129
  |   19: Species Au            5.76813510        1.66511718        2.35483129
  |   20: Species Au            8.65220265        1.66511718        2.35483129
  |   21: Species Au            1.44203378        4.16279294        2.35483129
  |   22: Species Au            4.32610133        4.16279294        2.35483129
  |   23: Species Au            7.21016888        4.16279294        2.35483129
  |   24: Species Pd           10.09423643        4.16279294        2.35483129
  |   25: Species Au            2.88406755        6.66046871        2.35483129
  |   26: Species Au            5.76813510        6.66046871        2.35483129
  |   27: Species Au            8.65220265        6.66046871        2.35483129
  |   28: Species Pd           11.53627020        6.66046871        2.35483129
  |   29: Species Au            4.32610133        9.15814447        2.35483129
  |   30: Species Au            7.21016888        9.15814447        2.35483129
  |   31: Species Au           10.09423643        9.15814447        2.35483129
  |   32: Species Pd           12.97830398        9.15814447        2.35483129
  |   33: Species Au            0.00000000        0.00000000        4.70966259
  |   34: Species Au            2.88406755        0.00000000        4.70966259
  |   35: Species Au            5.76813510        0.00000000        4.70966259
  |   36: Species Au            8.65220265        0.00000000        4.70966259
  |   37: Species Pd            1.44203378        2.49767576        4.70966259
  |   38: Species Au            4.32610133        2.49767576        4.70966259
  |   39: Species Au            7.21016888        2.49767576        4.70966259
  |   40: Species Au           10.09423643        2.49767576        4.70966259
  |   41: Species Pd            2.88406755        4.99535153        4.70966259
  |   42: Species Pd            5.76813510        4.99535153        4.70966259
  |   43: Species Au            8.65220265        4.99535153        4.70966259
  |   44: Species Au           11.53627020        4.99535153        4.70966259
  |   45: Species Pd            4.32610133        7.49302729        4.70966259
  |   46: Species Pd            7.21016888        7.49302729        4.70966259
  |   47: Species Au           10.09423643        7.49302729        4.70966259
  |   48: Species Au           12.97830398        7.49302729        4.70966259
  |   49: Species Au            1.44203378        0.83255859        7.06449388
  |   50: Species Au            4.32610133        0.83255859        7.06449388
  |   51: Species Au            7.21016888        0.83255859        7.06449388
  |   52: Species Pd           10.09423643        0.83255859        7.06449388
  |   53: Species Au            2.88406755        3.33023435        7.06449388
  |   54: Species Pd            5.76813510        3.33023435        7.06449388
  |   55: Species Pd            8.65220265        3.33023435        7.06449388
  |   56: Species Au           11.53627020        3.33023435        7.06449388
  |   57: Species Pd            4.32610133        5.82791012        7.06449388
  |   58: Species Pd            7.21016888        5.82791012        7.06449388
  |   59: Species Pd           10.09423643        5.82791012        7.06449388
  |   60: Species Au           12.97830398        5.82791012        7.06449388
  |   61: Species Au            5.76813510        8.32558588        7.06449388
  |   62: Species Au            8.65220265        8.32558588        7.06449388
  |   63: Species Au           11.53627020        8.32558588        7.06449388
  |   64: Species Au           14.42033775        8.32558588        7.06449388
  |   65: Species Au            0.00000000        1.66511718        9.41932518
  |   66: Species Pd            2.88406755        1.66511718        9.41932518
  |   67: Species Au            5.76813510        1.66511718        9.41932518
  |   68: Species Pd            8.65220265        1.66511718        9.41932518
  |   69: Species Au            1.44203378        4.16279294        9.41932518
  |   70: Species Au            4.32610133        4.16279294        9.41932518
  |   71: Species Pd            7.21016888        4.16279294        9.41932518
  |   72: Species Au           10.09423643        4.16279294        9.41932518
  |   73: Species Au            2.88406755        6.66046871        9.41932518
  |   74: Species Au            5.76813510        6.66046871        9.41932518
  |   75: Species Au            8.65220265        6.66046871        9.41932518
  |   76: Species Pd           11.53627020        6.66046871        9.41932518
  |   77: Species Au            4.32610133        9.15814447        9.41932518
  |   78: Species Au            7.21016888        9.15814447        9.41932518
  |   79: Species Au           10.09423643        9.15814447        9.41932518
  |   80: Species Pd           12.97830398        9.15814447        9.41932518
  |   81: Species Pd            0.00294244        0.00259366       11.69792262
  |   82: Species Pd            2.88309130        0.01196635       11.68604951
  |   83: Species Pd            5.77906867       -0.00786546       11.67779377
  |   84: Species Pd            8.64598686        0.01008633       11.66198501
  |   85: Species Pd            1.45594104        2.49301848       11.69260037
  |   86: Species Pd            4.31538571        2.49231837       11.68503465
  |   87: Species Pd            7.21550656        2.50164975       11.66546224
  |   88: Species Pd           10.08394095        2.49281287       11.67952753
  |   89: Species Pd            2.87993618        4.99317053       11.69873169
  |   90: Species Pd            5.77864969        4.99220656       11.68342332
  |   91: Species Pd            8.64018361        4.98647710       11.68107381
  |   92: Species Pd           11.53961363        5.00460764       11.68428971
  |   93: Species Pd            4.32405840        7.49485838       11.70194293
  |   94: Species Pd            7.20779364        7.49409387       11.70422427
  |   95: Species Pd           10.10748034        7.49119126       11.68265273
  |   96: Species Pd           12.96827083        7.49464112       11.67105232

  Lattice parameters for 3D lattice (in Angstroms) :    11.536270   11.536270   41.774156
  Angle(s) between unit vectors (in degrees)       :    90.000000   90.000000   60.000000


  Quantities derived from the lattice vectors (in Angstrom^-1):
  | Reciprocal lattice vector 1:  0.544646 -0.314452  0.000000
  | Reciprocal lattice vector 2:  0.000000  0.628903  0.000000
  | Reciprocal lattice vector 3:  0.000000  0.000000  0.150408
  | Unit cell volume                               :   0.481470E+04  Angstrom^3

  Fractional coordinates:
                         L1                L2                L3
       atom_frac         0.08333333        0.08333333        0.00000000  Au
       atom_frac         0.33333333        0.08333333        0.00000000  Pd
       atom_frac         0.58333333        0.08333333        0.00000000  Au
       atom_frac         0.83333333        0.08333333        0.00000000  Au
       atom_frac         0.08333333        0.33333333        0.00000000  Au
       atom_frac         0.33333333        0.33333333        0.00000000  Au
       atom_frac         0.58333333        0.33333333        0.00000000  Au
       atom_frac         0.83333333        0.33333333        0.00000000  Au
       atom_frac         0.08333333        0.58333333        0.00000000  Au
       atom_frac         0.33333333        0.58333333        0.00000000  Pd
       atom_frac         0.58333333        0.58333333        0.00000000  Au
       atom_frac         0.83333333        0.58333333        0.00000000  Au
       atom_frac         0.08333333        0.83333333        0.00000000  Au
       atom_frac         0.33333333        0.83333333        0.00000000  Pd
       atom_frac         0.58333333        0.83333333        0.00000000  Pd
       atom_frac         0.83333333        0.83333333        0.00000000  Pd
       atom_frac        -0.08333333        0.16666667        0.05637053  Au
       atom_frac         0.16666667        0.16666667        0.05637053  Pd
       atom_frac         0.41666667        0.16666667        0.05637053  Au
       atom_frac         0.66666667        0.16666667        0.05637053  Au
       atom_frac        -0.08333333        0.41666667        0.05637053  Au
       atom_frac         0.16666667        0.41666667        0.05637053  Au
       atom_frac         0.41666667        0.41666667        0.05637053  Au
       atom_frac         0.66666667        0.41666667        0.05637053  Pd
       atom_frac        -0.08333333        0.66666667        0.05637053  Au
       atom_frac         0.16666667        0.66666667        0.05637053  Au
       atom_frac         0.41666667        0.66666667        0.05637053  Au
       atom_frac         0.66666667        0.66666667        0.05637053  Pd
       atom_frac        -0.08333333        0.91666667        0.05637053  Au
       atom_frac         0.16666667        0.91666667        0.05637053  Au
       atom_frac         0.41666667        0.91666667        0.05637053  Au
       atom_frac         0.66666667        0.91666667        0.05637053  Pd
       atom_frac         0.00000000        0.00000000        0.11274106  Au
       atom_frac         0.25000000        0.00000000        0.11274106  Au
       atom_frac         0.50000000        0.00000000        0.11274106  Au
       atom_frac         0.75000000        0.00000000        0.11274106  Au
       atom_frac         0.00000000        0.25000000        0.11274106  Pd
       atom_frac         0.25000000        0.25000000        0.11274106  Au
       atom_frac         0.50000000        0.25000000        0.11274106  Au
       atom_frac         0.75000000        0.25000000        0.11274106  Au
       atom_frac         0.00000000        0.50000000        0.11274106  Pd
       atom_frac         0.25000000        0.50000000        0.11274106  Pd
       atom_frac         0.50000000        0.50000000        0.11274106  Au
       atom_frac         0.75000000        0.50000000        0.11274106  Au
       atom_frac         0.00000000        0.75000000        0.11274106  Pd
       atom_frac         0.25000000        0.75000000        0.11274106  Pd
       atom_frac         0.50000000        0.75000000        0.11274106  Au
       atom_frac         0.75000000        0.75000000        0.11274106  Au
       atom_frac         0.08333333        0.08333333        0.16911159  Au
       atom_frac         0.33333333        0.08333333        0.16911159  Au
       atom_frac         0.58333333        0.08333333        0.16911159  Au
       atom_frac         0.83333333        0.08333333        0.16911159  Pd
       atom_frac         0.08333333        0.33333333        0.16911159  Au
       atom_frac         0.33333333        0.33333333        0.16911159  Pd
       atom_frac         0.58333333        0.33333333        0.16911159  Pd
       atom_frac         0.83333333        0.33333333        0.16911159  Au
       atom_frac         0.08333333        0.58333333        0.16911159  Pd
       atom_frac         0.33333333        0.58333333        0.16911159  Pd
       atom_frac         0.58333333        0.58333333        0.16911159  Pd
       atom_frac         0.83333333        0.58333333        0.16911159  Au
       atom_frac         0.08333333        0.83333333        0.16911159  Au
       atom_frac         0.33333333        0.83333333        0.16911159  Au
       atom_frac         0.58333333        0.83333333        0.16911159  Au
       atom_frac         0.83333333        0.83333333        0.16911159  Au
       atom_frac        -0.08333333        0.16666667        0.22548212  Au
       atom_frac         0.16666667        0.16666667        0.22548212  Pd
       atom_frac         0.41666667        0.16666667        0.22548212  Au
       atom_frac         0.66666667        0.16666667        0.22548212  Pd
       atom_frac        -0.08333333        0.41666667        0.22548212  Au
       atom_frac         0.16666667        0.41666667        0.22548212  Au
       atom_frac         0.41666667        0.41666667        0.22548212  Pd
       atom_frac         0.66666667        0.41666667        0.22548212  Au
       atom_frac        -0.08333333        0.66666667        0.22548212  Au
       atom_frac         0.16666667        0.66666667        0.22548212  Au
       atom_frac         0.41666667        0.66666667        0.22548212  Au
       atom_frac         0.66666667        0.66666667        0.22548212  Pd
       atom_frac        -0.08333333        0.91666667        0.22548212  Au
       atom_frac         0.16666667        0.91666667        0.22548212  Au
       atom_frac         0.41666667        0.91666667        0.22548212  Au
       atom_frac         0.66666667        0.91666667        0.22548212  Pd
       atom_frac         0.00012526        0.00025961        0.28002774  Pd
       atom_frac         0.24931650        0.00119775        0.27974352  Pd
       atom_frac         0.50134140       -0.00078728        0.27954589  Pd
       atom_frac         0.74895641        0.00100957        0.27916746  Pd
       atom_frac         0.00143861        0.24953384        0.27990033  Pd
       atom_frac         0.24933926        0.24946376        0.27971922  Pd
       atom_frac         0.50026380        0.25039777        0.27925070  Pd
       atom_frac         0.74935093        0.24951326        0.27958739  Pd
       atom_frac        -0.00024897        0.49978170        0.28004711  Pd
       atom_frac         0.25106883        0.49968521        0.27968065  Pd
       atom_frac         0.49940229        0.49911173        0.27962441  Pd
       atom_frac         0.74982658        0.50092647        0.27970139  Pd
       atom_frac        -0.00026873        0.75018328        0.28012398  Pd
       atom_frac         0.24974073        0.75010676        0.28017859  Pd
       atom_frac         0.50123991        0.74981623        0.27966221  Pd
       atom_frac         0.74904953        0.75016153        0.27938451  Pd

 
  Finished reading input file 'geometry.in'.
 

 
  Consistency checks for stacksize environment parameter are next.
 
  | Maximum stacksize for task 0: unlimited
  | Maximum stacksize for task 1: unlimited
  | Maximum stacksize for task 2: unlimited
  | Maximum stacksize for task 3: unlimited
  | Maximum stacksize for task 4: unlimited
  | Maximum stacksize for task 5: unlimited
  | Maximum stacksize for task 6: unlimited
  | Maximum stacksize for task 7: unlimited
  | Maximum stacksize for task 8: unlimited
  | Maximum stacksize for task 9: unlimited
  | Maximum stacksize for task 10: unlimited
  | Maximum stacksize for task 11: unlimited
  | Maximum stacksize for task 12: unlimited
  | Maximum stacksize for task 13: unlimited
  | Maximum stacksize for task 14: unlimited
  | Maximum stacksize for task 15: unlimited
  | Maximum stacksize for task 16: unlimited
  | Maximum stacksize for task 17: unlimited
  | Maximum stacksize for task 18: unlimited
  | Maximum stacksize for task 19: unlimited
  | Maximum stacksize for task 20: unlimited
  | Maximum stacksize for task 21: unlimited
  | Maximum stacksize for task 22: unlimited
  | Maximum stacksize for task 23: unlimited
  | Maximum stacksize for task 24: unlimited
  | Maximum stacksize for task 25: unlimited
  | Maximum stacksize for task 26: unlimited
  | Maximum stacksize for task 27: unlimited
  | Maximum stacksize for task 28: unlimited
  | Maximum stacksize for task 29: unlimited
  | Maximum stacksize for task 30: unlimited
  | Maximum stacksize for task 31: unlimited
  | Maximum stacksize for task 32: unlimited
  | Maximum stacksize for task 33: unlimited
  | Maximum stacksize for task 34: unlimited
  | Maximum stacksize for task 35: unlimited
  | Maximum stacksize for task 36: unlimited
  | Maximum stacksize for task 37: unlimited
  | Maximum stacksize for task 38: unlimited
  | Maximum stacksize for task 39: unlimited
  | Maximum stacksize for task 40: unlimited
  | Maximum stacksize for task 41: unlimited
  | Maximum stacksize for task 42: unlimited
  | Maximum stacksize for task 43: unlimited
  | Maximum stacksize for task 44: unlimited
  | Maximum stacksize for task 45: unlimited
  | Maximum stacksize for task 46: unlimited
  | Maximum stacksize for task 47: unlimited
  | Maximum stacksize for task 48: unlimited
  | Maximum stacksize for task 49: unlimited
  | Maximum stacksize for task 50: unlimited
  | Maximum stacksize for task 51: unlimited
  | Maximum stacksize for task 52: unlimited
  | Maximum stacksize for task 53: unlimited
  | Maximum stacksize for task 54: unlimited
  | Maximum stacksize for task 55: unlimited
  | Maximum stacksize for task 56: unlimited
  | Maximum stacksize for task 57: unlimited
  | Maximum stacksize for task 58: unlimited
  | Maximum stacksize for task 59: unlimited
  | Maximum stacksize for task 60: unlimited
  | Maximum stacksize for task 61: unlimited
  | Maximum stacksize for task 62: unlimited
  | Maximum stacksize for task 63: unlimited
  | Current stacksize for task 0: unlimited
  | Current stacksize for task 1: unlimited
  | Current stacksize for task 2: unlimited
  | Current stacksize for task 3: unlimited
  | Current stacksize for task 4: unlimited
  | Current stacksize for task 5: unlimited
  | Current stacksize for task 6: unlimited
  | Current stacksize for task 7: unlimited
  | Current stacksize for task 8: unlimited
  | Current stacksize for task 9: unlimited
  | Current stacksize for task 10: unlimited
  | Current stacksize for task 11: unlimited
  | Current stacksize for task 12: unlimited
  | Current stacksize for task 13: unlimited
  | Current stacksize for task 14: unlimited
  | Current stacksize for task 15: unlimited
  | Current stacksize for task 16: unlimited
  | Current stacksize for task 17: unlimited
  | Current stacksize for task 18: unlimited
  | Current stacksize for task 19: unlimited
  | Current stacksize for task 20: unlimited
  | Current stacksize for task 21: unlimited
  | Current stacksize for task 22: unlimited
  | Current stacksize for task 23: unlimited
  | Current stacksize for task 24: unlimited
  | Current stacksize for task 25: unlimited
  | Current stacksize for task 26: unlimited
  | Current stacksize for task 27: unlimited
  | Current stacksize for task 28: unlimited
  | Current stacksize for task 29: unlimited
  | Current stacksize for task 30: unlimited
  | Current stacksize for task 31: unlimited
  | Current stacksize for task 32: unlimited
  | Current stacksize for task 33: unlimited
  | Current stacksize for task 34: unlimited
  | Current stacksize for task 35: unlimited
  | Current stacksize for task 36: unlimited
  | Current stacksize for task 37: unlimited
  | Current stacksize for task 38: unlimited
  | Current stacksize for task 39: unlimited
  | Current stacksize for task 40: unlimited
  | Current stacksize for task 41: unlimited
  | Current stacksize for task 42: unlimited
  | Current stacksize for task 43: unlimited
  | Current stacksize for task 44: unlimited
  | Current stacksize for task 45: unlimited
  | Current stacksize for task 46: unlimited
  | Current stacksize for task 47: unlimited
  | Current stacksize for task 48: unlimited
  | Current stacksize for task 49: unlimited
  | Current stacksize for task 50: unlimited
  | Current stacksize for task 51: unlimited
  | Current stacksize for task 52: unlimited
  | Current stacksize for task 53: unlimited
  | Current stacksize for task 54: unlimited
  | Current stacksize for task 55: unlimited
  | Current stacksize for task 56: unlimited
  | Current stacksize for task 57: unlimited
  | Current stacksize for task 58: unlimited
  | Current stacksize for task 59: unlimited
  | Current stacksize for task 60: unlimited
  | Current stacksize for task 61: unlimited
  | Current stacksize for task 62: unlimited
  | Current stacksize for task 63: unlimited
 
  Consistency checks for the contents of control.in are next.
 
  MPI_IN_PLACE appears to work with this MPI implementation.
  | Keeping use_mpi_in_place .true. (see manual).
  Target number of points in a grid batch is not set. Defaulting to  100
  Method for grid partitioning is not set. Defaulting to parallel hash+maxmin partitioning.
  Batch size limit is not set. Defaulting to    200
  By default, will store active basis functions for each batch.
  If in need of memory, prune_basis_once .false. can be used to disable this option.
  communication_type for Hartree potential was not specified.
  Defaulting to calc_hartree .
  Defaulting to Pulay charge density mixer.
  Pulay mixer: Number of relevant iterations not set.
  Defaulting to    8 iterations.
  Pulay mixer: Number of initial linear mixing iterations not set.
  Defaulting to    0 iterations.
  Work space size for distributed Hartree potential not set.
  Defaulting to   0.200000E+03 MB.
  Mixing parameter for charge density mixing has not been set.
  Using default: charge_mix_param =     0.0500.
  The mixing parameter will be adjusted in iteration number     2 of the first full s.c.f. cycle only.
  Algorithm-dependent basis array size parameters:
  | n_max_pulay                         :        8
  Maximum number of self-consistency iterations not provided.
  Presetting  1000 iterations.
  Presetting      1001 iterations before the initial mixing cycle
  is restarted anyway using the sc_init_iter criterion / keyword.
  Presetting a factor      1.000 between actual scf density residual
  and density convergence criterion sc_accuracy_rho below which sc_init_iter
  takes no effect.
  No maximum number of relaxation steps, defaulting to     1000
  Using explicit Hessian from geometry.in.
  No maximum energy tolerance for TRM/BFGS moves, defaulting to   0.150000E-02
  Maximum energy tolerance by which TRM/BFGS trajectory may increase over multiple steps:   0.300000E-02
  No harmonic length scale. Defaulting to   0.250000E-01 A.
  No trust radius initializer. Defaulting to   0.200000E+00 A.
  Forces evaluation will include force correction term due to incomplete self-consistency (default).
  Force calculation: scf convergence accuracy of forces not set.
  Defaulting to 'sc_accuracy_forces not_checked'.
  Handling of forces: Unphysical translation and rotation will be removed from forces.
  No accuracy limit for integral partition fn. given. Defaulting to  0.1000E-14.
  No threshold value for u(r) in integrations given. Defaulting to  0.1000E-05.
  No occupation type (smearing scheme) given. Defaulting to Gaussian broadening, width =  0.1000E-01 eV.
  The width will be adjusted in iteration number     2 of the first full s.c.f. cycle only.
  S.C.F. convergence parameters will be adjusted in iteration number     2 of the first full s.c.f. cycle only.
  No accuracy for occupation numbers given. Defaulting to  0.1000E-12.
  No threshold value for occupation numbers given. Defaulting to  0.0000E+00.
  No accuracy for fermi level given. Defaulting to  0.1000E-19.
  Maximum # of iterations to find E_F not set. Defaulting to  200.
  Preferred method for the eigenvalue solver ('KS_method') not specified in 'control.in'.
  Calling BLACS routine to test compilation state
  Since ScaLAPACK support is enabled, defaulting to ELPA (via ELSI).
  Will not use alltoall communication since running on < 1024 CPUs.
  Threshold for basis singularities not set.
  Default threshold for basis singularities:  0.1000E-04
  partition_type (choice of integration weights) for integrals was not specified.
  | Using a version of the partition function of Stratmann and coworkers ('stratmann_sparse').
  | At each grid point, the set of atoms used to build the partition table is smoothly restricted to
  | only those atoms whose free-atom density would be non-zero at that grid point.
  Partitioning for Hartree potential was not defined. Using partition_type for integrals.
  | Adjusted default value of keyword multip_moments_threshold to:       0.10000000E-11
  | This value may affect high angular momentum components of the Hartree potential in periodic systems.
  Spin handling was not defined in control.in. Defaulting to unpolarized case.
  Angular momentum expansion for Kerker preconditioner not set explicitly.
  | Using default value of   0
  No explicit requirement for turning off preconditioner.
  | By default, it will be turned off when the charge convergence reaches
  | sc_accuracy_rho  =   0.100000E-05
  | sc_accuracy_etot =   0.100000E-05
  No special mixing parameter while Kerker preconditioner is on.
  Using default: charge_mix_param =     0.0500.
  No q(lm)/r^(l+1) cutoff set for long-range Hartree potential.
  | Using default value of  0.100000E-09 .
  | Verify using the multipole_threshold keyword.
  Defaulting to new monopole extrapolation.
  Density update method: automatic selection selected.
  Using density matrix based charge density update.
  Using density matrix based charge density update.
  Using packed matrix style: index .
  Geometry relaxation: A file "geometry.in.next_step" is written out by default after each step.
  | This file contains the geometry of the current relaxation step as well as
  | the current Hessian matrix needed to restart the relaxation algorithm.
  | If you do not want part or all of this information, use the keywords
  | "write_restart_geometry" or "hessian_to_restart_geometry" to switch the output off.
  Defaulting to use time-reversal symmetry for k-point grid.
  Charge integration errors on the 3D integration grid will be compensated
  by explicit normalization and distribution of residual charges.
  Use the "compensate_multipole_errors" flag to change this behaviour.
  Using the following vdw_convergence_threshold for supercell sums
  over the Tkatchenko-Scheffler correction:  0.100000E-05 eV.
 
  Consistency checks for the contents of geometry.in are next.
 

  Range separation radius for Ewald summation (hartree_convergence_parameter):      5.00000000 bohr.
  Number of empty states per atom not set in control.in - providing a guess from actual geometry.
  | Total number of empty states used during s.c.f. cycle:      721
  If you use a very high smearing, use empty_states (per atom!) in control.in to increase this value.

  Structure-dependent array size parameters: 
  | Maximum number of distinct radial functions  :       35
  | Maximum number of basis functions            :     6189
  | Number of Kohn-Sham states (occupied + empty):     3837
------------------------------------------------------------

------------------------------------------------------------
          Preparing all fixed parts of the calculation.
------------------------------------------------------------
  Determining machine precision:
    2.225073858507201E-308
  Setting up grids for atomic and cluster calculations.

  Creating wave function, potential, and density for free atoms.
  Runtime choices for atomic solver:
  | atomic solver xc        : PBE
  | compute density gradient: 1
  | compute kinetic density : F

  Species: Au

  List of occupied orbitals and eigenvalues:
    n    l              occ      energy [Ha]    energy [eV]
    1    0           2.0000     -3256.434633    -88612.0949
    2    0           2.0000      -533.658033    -14521.5739
    3    0           2.0000      -124.235224     -3380.6125
    4    0           2.0000       -26.846951      -730.5427
    5    0           2.0000        -3.977367      -108.2297
    6    0           1.0000        -0.210392        -5.7251
    2    1           6.0000      -460.387254    -12527.7746
    3    1           6.0000      -103.452063     -2815.0739
    4    1           6.0000       -20.078917      -546.3751
    5    1           6.0000        -2.192843       -59.6703
    3    2          10.0000       -81.367955     -2214.1347
    4    2          10.0000       -11.978294      -325.9460
    5    2          10.0000        -0.251979        -6.8567
    4    3          14.0000        -2.988656       -81.3255


  Species: Pd

  List of occupied orbitals and eigenvalues:
    n    l              occ      energy [Ha]    energy [eV]
    1    0           2.0000      -913.269104    -24851.3168
    2    0           2.0000      -130.434372     -3549.2998
    3    0           2.0000       -23.521804      -640.0609
    4    0           2.0000        -3.256918       -88.6253
    5    0           1.0000        -0.157260        -4.2793
    2    1           6.0000      -116.910756     -3181.3035
    3    1           6.0000       -19.103344      -519.8284
    4    1           6.0000        -1.998052       -54.3697
    3    2          10.0000       -12.098182      -329.2083
    4    2           9.0000        -0.243389        -6.6230


  Adding cutoff potential to free-atom effective potential.
  Creating fixed part of basis set: Ionic, confined, hydrogenic.
 
  Au                   ion:

  List of free ionic orbitals and eigenvalues:
    n    l      energy [Ha]    energy [eV]
    1    0     -3257.305345    -88635.7882
    2    0      -534.468969    -14543.6406
    3    0      -125.037161     -3402.4343
    4    0       -27.646714      -752.3054
    5    0        -4.773414      -129.8912
    2    1      -461.196653    -12549.7994
    3    1      -104.253556     -2836.8836
    4    1       -20.878488      -568.1326
    5    1        -2.984283       -81.2065
    3    2       -82.168946     -2235.9308
    4    2       -12.777596      -347.6961
    5    2        -1.004504       -27.3340
    4    3        -3.787521      -103.0637


  List of ionic basis orbitals and eigenvalues:
    n    l      energy [Ha]    energy [eV]    outer radius [A]
    6    1        -0.536435       -14.5971       5.411271
    6    0        -0.835588       -22.7375       5.090413

 
  Au                   hydrogenic:
 
  List of hydrogenic basis orbitals: 
    n    l      effective z      eigenvalue [eV]  inner max. [A]     outer max. [A]     outer radius [A]   
    4    3         7.400000       -46.5653           1.145580           1.145580           4.907105
    5    4        10.000000       -54.4226           1.326589           1.326589           5.028562
    6    5        12.800000       -61.9208           1.480879           1.480879           5.153025
    3    2         2.500000        -9.3396           1.868078           1.868078           5.477829
 
 
  Pd                   ion:

  List of free ionic orbitals and eigenvalues:
    n    l      energy [Ha]    energy [eV]
    1    0      -914.099884    -24873.9234
    2    0      -131.248265     -3571.4470
    3    0       -24.332473      -662.1203
    4    0        -4.059276      -110.4585
    2    1      -117.724296     -3203.4411
    3    1       -19.913908      -541.8850
    4    1        -2.795328       -76.0648
    3    2       -12.908733      -351.2645
    4    2        -1.004248       -27.3270


  List of ionic basis orbitals and eigenvalues:
    n    l      energy [Ha]    energy [eV]    outer radius [A]
    5    1        -0.516938       -14.0666       5.427025

 
  Pd                   hydrogenic:
 
  List of hydrogenic basis orbitals: 
    n    l      effective z      eigenvalue [eV]  inner max. [A]     outer max. [A]     outer radius [A]   
    4    3         8.000000       -54.4226           1.054686           1.054686           4.629581
    5    4        10.000000       -54.4226           1.330451           1.330451           5.043202
    3    0         2.600000        -9.8948           0.150992           2.606197           5.493778
    3    2         2.500000        -9.3396           1.873517           1.873517           5.493778
 
  Creating atomic-like basis functions for current effective potential.

  Species Au                  :

  List of atomic basis orbitals and eigenvalues:
    n    l      energy [Ha]    energy [eV]    outer radius [A]
    1    0     -3256.434633    -88612.0949       0.120816
    2    0      -533.658033    -14521.5739       0.313506
    3    0      -124.235224     -3380.6125       0.652830
    4    0       -26.846951      -730.5427       1.359424
    5    0        -3.977367      -108.2297       3.318406
    6    0        -0.210392        -5.7251       5.411271
    2    1      -460.387254    -12527.7746       0.329217
    3    1      -103.452063     -2815.0739       0.702515
    4    1       -20.078917      -546.3751       1.536198
    5    1        -2.192843       -59.6703       4.237546
    3    2       -81.367955     -2214.1347       0.755981
    4    2       -11.978294      -325.9460       1.868078
    5    2        -0.251979        -6.8567       5.345521
    4    3        -2.988656       -81.3255       3.160040


  Species Pd                  :

  List of atomic basis orbitals and eigenvalues:
    n    l      energy [Ha]    energy [eV]    outer radius [A]
    1    0      -913.269104    -24851.3168       0.223280
    2    0      -130.434372     -3549.2998       0.615909
    3    0       -23.521804      -640.0609       1.414312
    4    0        -3.256918       -88.6253       3.581357
    5    0        -0.157260        -4.2793       5.427025
    2    1      -116.910756     -3181.3035       0.631154
    3    1       -19.103344      -519.8284       1.540671
    4    1        -1.998052       -54.3697       4.408641
    3    2       -12.098182      -329.2083       1.806051
    4    2        -0.243389        -6.6230       5.361084

  Assembling full basis from fixed parts.
  | Species Au :   atomic orbital   1 s accepted.
  | Species Au :   atomic orbital   2 s accepted.
  | Species Au :   atomic orbital   3 s accepted.
  | Species Au :   atomic orbital   4 s accepted.
  | Species Au :   atomic orbital   5 s accepted.
  | Species Au :    ionic orbital   6 s accepted.
  | Species Au :   atomic orbital   6 s accepted.
  | Species Au :   atomic orbital   2 p accepted.
  | Species Au :   atomic orbital   3 p accepted.
  | Species Au :   atomic orbital   4 p accepted.
  | Species Au :   atomic orbital   5 p accepted.
  | Species Au :    ionic orbital   6 p accepted.
  | Species Au :   atomic orbital   3 d accepted.
  | Species Au :   atomic orbital   4 d accepted.
  | Species Au :   atomic orbital   5 d accepted.
  | Species Au :    hydro orbital   3 d accepted.
  | Species Au :   atomic orbital   4 f accepted.
  | Species Au :    hydro orbital   4 f accepted.
  | Species Au :    hydro orbital   5 g accepted.
  | Species Au :    hydro orbital   6 h accepted.
  | Species Pd :   atomic orbital   1 s accepted.
  | Species Pd :   atomic orbital   2 s accepted.
  | Species Pd :   atomic orbital   3 s accepted.
  | Species Pd :   atomic orbital   4 s accepted.
  | Species Pd :   atomic orbital   5 s accepted.
  | Species Pd :    hydro orbital   3 s accepted.
  | Species Pd :   atomic orbital   2 p accepted.
  | Species Pd :   atomic orbital   3 p accepted.
  | Species Pd :   atomic orbital   4 p accepted.
  | Species Pd :    ionic orbital   5 p accepted.
  | Species Pd :   atomic orbital   3 d accepted.
  | Species Pd :   atomic orbital   4 d accepted.
  | Species Pd :    hydro orbital   3 d accepted.
  | Species Pd :    hydro orbital   4 f accepted.
  | Species Pd :    hydro orbital   5 g accepted.
 
  Basis size parameters after reduction:
  | Total number of radial functions:       35
  | Total number of basis functions :     6189
 
  Per-task memory consumption for arrays in subroutine allocate_ext:
  |          13.472652MB.
  Testing on-site integration grid accuracy.
  |  Species  Function  <phi|h_atom|phi> (log., in eV)  <phi|h_atom|phi> (rad., in eV)
           1        1             -88612.0949139707             -88612.0747293473
           1        2             -14521.5739437942             -14521.5735408178
           1        3              -3380.6124545399              -3380.6124173630
           1        4               -730.5426935261               -730.5426858705
           1        5               -108.2296517333               -108.2296496095
           1        6                 -5.1606682002                 -5.1606681296
           1        7                  4.8958549913                  4.8958893750
           1        8             -12527.7745999590             -12527.7745914501
           1        9              -2815.0738542900              -2815.0738418447
           1       10               -546.3751362224               -546.3751311418
           1       11                -59.6702997856                -59.6702984643
           1       12                  0.7376589007                  0.7376588285
           1       13              -2214.1347180493              -2214.1347136987
           1       14               -325.9459599587               -325.9459574815
           1       15                 -6.8567570024                 -6.8567566279
           1       16                  5.7674784720                  5.7674893342
           1       17                -81.3254720988                -81.3254715870
           1       18                 21.6280526257                 21.6280525634
           1       19                 37.4546776375                 37.4546777145
           1       20                 50.0897090205                 50.0897093650
           2       21             -24851.3167505682             -24851.3148165635
           2       22              -3549.2998457785              -3549.2998098031
           2       23               -640.0608571327               -640.0608534886
           2       24                -88.6252603131                -88.6252593316
           2       25                 -4.2849374515                 -4.2849400622
           2       26                  4.9432123540                  4.9432188418
           2       27              -3181.3035399559              -3181.3035364574
           2       28               -519.8284281886               -519.8284264063
           2       29                -54.3697495804                -54.3697489261
           2       30                  0.8628369484                  0.8628370487
           2       31               -329.2082917394               -329.2082912864
           2       32                 -6.6230267036                 -6.6230265076
           2       33                  5.4924295291                  5.4924115607
           2       34                 25.0740861942                 25.0740861175
           2       35                 38.8271273823                 38.8271278029

  Preparing densities etc. for the partition functions (integrals / Hartree potential).

  Preparations completed.
  max(cpu_time)          :      0.568 s.
  Wall clock time (cpu1) :      0.570 s.
------------------------------------------------------------

  Initializing index lists of integration centers etc. from given atomic structure:
  Mapping all atomic coordinates to central unit cell.

  Initializing the k-points
  Using symmetry for reducing the k-points
  | k-points reduced from:       49 to       25
  | Number of k-points                             :        25
  The eigenvectors in the calculations are COMPLEX.
  | Number of basis functions in the Hamiltonian integrals :     19235
  | Number of basis functions in a single unit cell        :      6189
  | Number of centers in hartree potential         :      1530
  | Number of centers in hartree multipole         :       940
  | Number of centers in electron density summation:       782
  | Number of centers in basis integrals           :       804
  | Number of centers in integrals                 :       446
  | Number of centers in hamiltonian               :       782
  | Consuming          7 KiB for k_phase.
  | Number of super-cells (origin) [n_cells]                     :         147
  | Number of super-cells (after PM_index) [n_cells]             :          18
  | Number of super-cells in hamiltonian [n_cells_in_hamiltonian]:          18
  | Size of matrix packed + index [n_hamiltonian_matrix_size] :    24688701

------------------------------------------------------------
          Begin self-consistency loop: Initialization.

          Date     :  20231222, Time     :  001713.590
------------------------------------------------------------

  Initializing relaxation algorithms.
  Finished initialization of distributed Hessian storage.
  | Global dimension:        48
  | BLACS block size:         1
  | Number of workers:       48

  Reading estimated Hessian matrix from file 'hessian.aims'
  | Estimated reciprocal-space cutoff momentum G_max:         1.90186217 bohr^-1 .
  | Reciprocal lattice points for long-range Hartree potential:    3850
  Using simple linear distribution as default method for k-point parallelism.
  * Using 64 tasks for Scalapack Eigenvalue solver.
  Detailed listing of tasks and assigned k-points:
   Task     0 k-point     1 on node013.cluster
   Task     1 k-point     1 on node013.cluster
   Task     2 k-point     1 on node013.cluster
   Task     3 k-point     2 on node013.cluster
   Task     4 k-point     2 on node013.cluster
   Task     5 k-point     2 on node013.cluster
   Task     6 k-point     3 on node013.cluster
   Task     7 k-point     3 on node013.cluster
   Task     8 k-point     4 on node013.cluster
   Task     9 k-point     4 on node013.cluster
   Task    10 k-point     4 on node013.cluster
   Task    11 k-point     5 on node013.cluster
   Task    12 k-point     5 on node013.cluster
[...]
            atom        11.53627020        6.66046871        2.35483129  Pd
            atom         4.32610133        9.15814447        2.35483129  Au
            atom         7.21016888        9.15814447        2.35483129  Au
            atom        10.09423643        9.15814447        2.35483129  Au
            atom        12.97830398        9.15814447        2.35483129  Pd
            atom         0.00000000        0.00000000        4.70966259  Au
            atom         2.88406755        0.00000000        4.70966259  Au
            atom         5.76813510        0.00000000        4.70966259  Au
            atom         8.65220265        0.00000000        4.70966259  Au
            atom         1.44203378        2.49767576        4.70966259  Pd
            atom         4.32610133        2.49767576        4.70966259  Au
            atom         7.21016888        2.49767576        4.70966259  Au
            atom        10.09423643        2.49767576        4.70966259  Au
            atom         2.88406755        4.99535153        4.70966259  Pd
            atom         5.76813510        4.99535153        4.70966259  Pd
            atom         8.65220265        4.99535153        4.70966259  Au
            atom        11.53627020        4.99535153        4.70966259  Au
            atom         4.32610133        7.49302729        4.70966259  Pd
            atom         7.21016888        7.49302729        4.70966259  Pd
            atom        10.09423643        7.49302729        4.70966259  Au
            atom        12.97830398        7.49302729        4.70966259  Au
            atom         1.44203378        0.83255859        7.06449388  Au
            atom         4.32610133        0.83255859        7.06449388  Au
            atom         7.21016888        0.83255859        7.06449388  Au
            atom        10.09423643        0.83255859        7.06449388  Pd
            atom         2.88406755        3.33023435        7.06449388  Au
            atom         5.76813510        3.33023435        7.06449388  Pd
            atom         8.65220265        3.33023435        7.06449388  Pd
            atom        11.53627020        3.33023435        7.06449388  Au
            atom         4.32610133        5.82791012        7.06449388  Pd
            atom         7.21016888        5.82791012        7.06449388  Pd
            atom        10.09423643        5.82791012        7.06449388  Pd
            atom        12.97830398        5.82791012        7.06449388  Au
            atom         5.76813510        8.32558588        7.06449388  Au
            atom         8.65220265        8.32558588        7.06449388  Au
            atom        11.53627020        8.32558588        7.06449388  Au
            atom        14.42033775        8.32558588        7.06449388  Au
            atom         0.00000000        1.66511718        9.41932518  Au
            atom         2.88406755        1.66511718        9.41932518  Pd
            atom         5.76813510        1.66511718        9.41932518  Au
            atom         8.65220265        1.66511718        9.41932518  Pd
            atom         1.44203378        4.16279294        9.41932518  Au
            atom         4.32610133        4.16279294        9.41932518  Au
            atom         7.21016888        4.16279294        9.41932518  Pd
            atom        10.09423643        4.16279294        9.41932518  Au
            atom         2.88406755        6.66046871        9.41932518  Au
            atom         5.76813510        6.66046871        9.41932518  Au
            atom         8.65220265        6.66046871        9.41932518  Au
            atom        11.53627020        6.66046871        9.41932518  Pd
            atom         4.32610133        9.15814447        9.41932518  Au
            atom         7.21016888        9.15814447        9.41932518  Au
            atom        10.09423643        9.15814447        9.41932518  Au
            atom        12.97830398        9.15814447        9.41932518  Pd
            atom         0.00289564        0.00201596       11.69716563  Pd
            atom         2.88307961        0.01173219       11.68542202  Pd
            atom         5.77928608       -0.00833095       11.67695749  Pd
            atom         8.64587302        0.00987765       11.66082484  Pd
            atom         1.45610176        2.49280838       11.69139628  Pd
            atom         4.31503561        2.49208365       11.68389295  Pd
            atom         7.21590436        2.50158503       11.66426228  Pd
            atom        10.08375567        2.49248063       11.67840316  Pd
            atom         2.87988085        4.99277246       11.69773990  Pd
            atom         5.77887773        4.99210906       11.68275889  Pd
            atom         8.63992497        4.98629601       11.68009009  Pd
            atom        11.53969590        5.00438429       11.68298412  Pd
            atom         4.32424862        7.49446501       11.70068195  Pd
            atom         7.20762770        7.49373269       11.70300980  Pd
            atom        10.10774187        7.49078973       11.68173044  Pd
            atom        12.96787174        7.49445952       11.66991224  Pd

  Fractional coordinates:
                         L1                L2                L3
       atom_frac         0.08333333        0.08333333        0.00000000  Au
       atom_frac         0.33333333        0.08333333        0.00000000  Pd
       atom_frac         0.58333333        0.08333333        0.00000000  Au
       atom_frac         0.83333333        0.08333333        0.00000000  Au
       atom_frac         0.08333333        0.33333333        0.00000000  Au
       atom_frac         0.33333333        0.33333333        0.00000000  Au
       atom_frac         0.58333333        0.33333333        0.00000000  Au
       atom_frac         0.83333333        0.33333333        0.00000000  Au
       atom_frac         0.08333333        0.58333333        0.00000000  Au
       atom_frac         0.33333333        0.58333333        0.00000000  Pd
       atom_frac         0.58333333        0.58333333        0.00000000  Au
       atom_frac         0.83333333        0.58333333        0.00000000  Au
       atom_frac         0.08333333        0.83333333        0.00000000  Au
       atom_frac         0.33333333        0.83333333        0.00000000  Pd
       atom_frac         0.58333333        0.83333333        0.00000000  Pd
       atom_frac         0.83333333        0.83333333        0.00000000  Pd
       atom_frac        -0.08333333        0.16666667        0.05637053  Au
       atom_frac         0.16666667        0.16666667        0.05637053  Pd
       atom_frac         0.41666667        0.16666667        0.05637053  Au
       atom_frac         0.66666667        0.16666667        0.05637053  Au
       atom_frac        -0.08333333        0.41666667        0.05637053  Au
       atom_frac         0.16666667        0.41666667        0.05637053  Au
       atom_frac         0.41666667        0.41666667        0.05637053  Au
       atom_frac         0.66666667        0.41666667        0.05637053  Pd
       atom_frac        -0.08333333        0.66666667        0.05637053  Au
       atom_frac         0.16666667        0.66666667        0.05637053  Au
       atom_frac         0.41666667        0.66666667        0.05637053  Au
       atom_frac         0.66666667        0.66666667        0.05637053  Pd
       atom_frac        -0.08333333        0.91666667        0.05637053  Au
       atom_frac         0.16666667        0.91666667        0.05637053  Au
       atom_frac         0.41666667        0.91666667        0.05637053  Au
       atom_frac         0.66666667        0.91666667        0.05637053  Pd
       atom_frac         0.00000000        0.00000000        0.11274106  Au
       atom_frac         0.25000000        0.00000000        0.11274106  Au
       atom_frac         0.50000000        0.00000000        0.11274106  Au
       atom_frac         0.75000000        0.00000000        0.11274106  Au
       atom_frac         0.00000000        0.25000000        0.11274106  Pd
       atom_frac         0.25000000        0.25000000        0.11274106  Au
       atom_frac         0.50000000        0.25000000        0.11274106  Au
       atom_frac         0.75000000        0.25000000        0.11274106  Au
       atom_frac         0.00000000        0.50000000        0.11274106  Pd
       atom_frac         0.25000000        0.50000000        0.11274106  Pd
       atom_frac         0.50000000        0.50000000        0.11274106  Au
       atom_frac         0.75000000        0.50000000        0.11274106  Au
       atom_frac         0.00000000        0.75000000        0.11274106  Pd
       atom_frac         0.25000000        0.75000000        0.11274106  Pd
       atom_frac         0.50000000        0.75000000        0.11274106  Au
       atom_frac         0.75000000        0.75000000        0.11274106  Au
       atom_frac         0.08333333        0.08333333        0.16911159  Au
       atom_frac         0.33333333        0.08333333        0.16911159  Au
       atom_frac         0.58333333        0.08333333        0.16911159  Au
       atom_frac         0.83333333        0.08333333        0.16911159  Pd
       atom_frac         0.08333333        0.33333333        0.16911159  Au
       atom_frac         0.33333333        0.33333333        0.16911159  Pd
       atom_frac         0.58333333        0.33333333        0.16911159  Pd
       atom_frac         0.83333333        0.33333333        0.16911159  Au
       atom_frac         0.08333333        0.58333333        0.16911159  Pd
       atom_frac         0.33333333        0.58333333        0.16911159  Pd
       atom_frac         0.58333333        0.58333333        0.16911159  Pd
       atom_frac         0.83333333        0.58333333        0.16911159  Au
       atom_frac         0.08333333        0.83333333        0.16911159  Au
       atom_frac         0.33333333        0.83333333        0.16911159  Au
       atom_frac         0.58333333        0.83333333        0.16911159  Au
       atom_frac         0.83333333        0.83333333        0.16911159  Au
       atom_frac        -0.08333333        0.16666667        0.22548212  Au
       atom_frac         0.16666667        0.16666667        0.22548212  Pd
       atom_frac         0.41666667        0.16666667        0.22548212  Au
       atom_frac         0.66666667        0.16666667        0.22548212  Pd
       atom_frac        -0.08333333        0.41666667        0.22548212  Au
       atom_frac         0.16666667        0.41666667        0.22548212  Au
       atom_frac         0.41666667        0.41666667        0.22548212  Pd
       atom_frac         0.66666667        0.41666667        0.22548212  Au
       atom_frac        -0.08333333        0.66666667        0.22548212  Au
       atom_frac         0.16666667        0.66666667        0.22548212  Au
       atom_frac         0.41666667        0.66666667        0.22548212  Au
       atom_frac         0.66666667        0.66666667        0.22548212  Pd
       atom_frac        -0.08333333        0.91666667        0.22548212  Au
       atom_frac         0.16666667        0.91666667        0.22548212  Au
       atom_frac         0.41666667        0.91666667        0.22548212  Au
       atom_frac         0.66666667        0.91666667        0.22548212  Pd
       atom_frac         0.00015011        0.00020178        0.28000962  Pd
       atom_frac         0.24932721        0.00117431        0.27972850  Pd
       atom_frac         0.50138354       -0.00083387        0.27952587  Pd
       atom_frac         0.74895699        0.00098868        0.27913968  Pd
       atom_frac         0.00146305        0.24951281        0.27987151  Pd
       atom_frac         0.24932066        0.24944027        0.27969189  Pd
       atom_frac         0.50030153        0.25039129        0.27922197  Pd
       atom_frac         0.74935149        0.24948000        0.27956048  Pd
       atom_frac        -0.00023384        0.49974185        0.28002337  Pd
       atom_frac         0.25109348        0.49967545        0.27966475  Pd
       atom_frac         0.49938893        0.49909360        0.27960086  Pd
       atom_frac         0.74984489        0.50090412        0.27967014  Pd
       atom_frac        -0.00023255        0.75014391        0.28009379  Pd
       atom_frac         0.24974442        0.75007061        0.28014952  Pd
       atom_frac         0.50128268        0.74977604        0.27964013  Pd
       atom_frac         0.74902402        0.75014336        0.27935722  Pd
------------------------------------------------------------

------------------------------------------------------------------------------
  Final output of selected total energy values:

  The following output summarizes some interesting total energy values
  at the end of a run (AFTER all relaxation, molecular dynamics, etc.).

  | Total energy of the DFT / Hartree-Fock s.c.f. calculation      :      -35155169.108892389 eV
  | Final zero-broadening corrected energy (caution - metals only) :      -35155169.141409144 eV
  | For reference only, the value of 1 Hartree used in FHI-aims is :             27.211384500 eV
  | For reference only, the overall average (free atom contribution
  | + realspace contribution) of the electrostatic potential after
  | s.c.f. convergence is                                          :             -9.535656587 eV

  Before relying on these values, please be sure to understand exactly which
  total energy value is referred to by a given number. Different objects may
  all carry the same name 'total energy'. Definitions:

  Total energy of the DFT / Hartree-Fock s.c.f. calculation:
  | Note that this energy does not include ANY quantities calculated after the
  | s.c.f. cycle, in particular not ANY RPA, MP2, etc. many-body perturbation terms.

  Final zero-broadening corrected energy:
  | For metallic systems only, a broadening of the occupation numbers at the Fermi
  | level can be extrapolated back to zero broadening by an electron-gas inspired
  | formula. For all systems that are not real metals, this value can be
  | meaningless and should be avoided.

------------------------------------------------------------------------------
  Methods described in the following list of references were used in this FHI-aims run.
  If you publish the results, please make sure to cite these reference if they apply.
  FHI-aims is an academic code, and for our developers (often, Ph.D. students
  and postdocs), scientific credit in the community is essential.
  Thank you for helping us!

  For any use of FHI-aims, please cite:

    Volker Blum, Ralf Gehrke, Felix Hanke, Paula Havu, Ville Havu,
    Xinguo Ren, Karsten Reuter, and Matthias Scheffler
    'Ab initio molecular simulations with numeric atom-centered orbitals'
    Computer Physics Communications 180, 2175-2196 (2009)
    http://doi.org/10.1016/j.cpc.2009.06.022


  The provided symmetry information was generated with SPGlib:

    Atsushi Togo, Yusuke Seto, Dimitar Pashov
    SPGlib 1.7.3 obtained from http://spglib.sourceforge.net
    Copyright (C) 2008 Atsushi Togo


  The ELSI infrastructure was used in your run to solve the Kohn-Sham electronic structure.
  Please check out http://elsi-interchange.org to learn more.
  If scalability is important for your project, please acknowledge ELSI by citing:

    V. W-z. Yu, F. Corsetti, A. Garcia, W. P. Huhn, M. Jacquelin, W. Jia,
    B. Lange, L. Lin, J. Lu, W. Mi, A. Seifitokaldani, A. Vazquez-Mayagoitia,
    C. Yang, H. Yang, and V. Blum
    'ELSI: A unified software interface for Kohn-Sham electronic structure solvers'
    Computer Physics Communications 222, 267-285 (2018).
    http://doi.org/10.1016/j.cpc.2017.09.007


  For the real-space grid partitioning and parallelization used in this calculation, please cite:

    Ville Havu, Volker Blum, Paula Havu, and Matthias Scheffler,
    'Efficient O(N) integration for all-electron electronic structure calculation'
    'using numerically tabulated basis functions'
    Journal of Computational Physics 228, 8367-8379 (2009).
    http://doi.org/10.1016/j.jcp.2009.08.008

  Of course, there are many other important community references, e.g., those cited in the
  above references. Our list is limited to references that describe implementations in the
  FHI-aims code. The reason is purely practical (length of this list) - please credit others as well.

   One or more s.c.f. cycles took more than 50 s.c.f. iterations.
   It might be worth adjusting your convergence settings. For example,
   metals need a larger broadening and a smaller "charge_mix_param" value than semiconductors.

------------------------------------------------------------
          Leaving FHI-aims.
          Date     :  20231222, Time     :  091752.542

          Computational steps:
          | Number of self-consistency cycles          :           99
          | Number of SCF (re)initializations          :            2
          | Number of relaxation steps                 :            1

          Detailed time accounting                     :  max(cpu_time)    wall_clock(cpu1)
          | Total time                                  :    32437.328 s       32440.697 s
          | Preparation time                            :        0.568 s           0.570 s
          | Boundary condition initalization            :        2.109 s           2.109 s
          | Grid partitioning                           :        5.984 s           5.977 s
          | Preloading free-atom quantities on grid     :        5.678 s           5.679 s
          | Free-atom superposition energy              :        0.528 s           0.529 s
          | Total time for integrations                 :     1815.732 s        1802.571 s
          | Total time for solution of K.-S. equations  :    25269.428 s       25269.937 s
          | Total time for EV reorthonormalization      :       28.795 s          23.496 s
          | Total time for density & force components   :     4518.186 s        4518.284 s
          | Total time for mixing & preconditioning     :      187.077 s         186.989 s
          | Total time for Hartree multipole update     :        1.341 s           1.358 s
          | Total time for Hartree multipole sum        :      520.366 s         520.503 s
          | Total time for total energy evaluation      :        0.476 s           0.264 s
          | Total time NSC force correction             :       26.329 s          26.331 s
          | Total time for scaled ZORA corrections      :        0.000 s           0.000 s
          | Total time for vdW correction               :       53.003 s          53.017 s

          Partial memory accounting:
          | Residual value for overall tracked memory usage across tasks:     0.000000 MB (should be 0.000000 MB)
          | Peak values for overall tracked memory usage:
          |   Minimum:     1396.850 MB (on task  2 after allocating temp_ham_ovlp)
          |   Maximum:     1789.706 MB (on task  6 after allocating temp_ham_ovlp)
          |   Average:     1531.546 MB
          | Largest tracked array allocation:
          |   Minimum:      194.634 MB (ovlp_complex on task  2)
          |   Maximum:      292.848 MB (ovlp_complex on task  6)
          |   Average:      228.308 MB
          Note:  These values currently only include a subset of arrays which are explicitly tracked.
          The "true" memory usage will be greater.

          Have a nice day.
------------------------------------------------------------
