------------------------------------------------------------
          Invoking FHI-aims ...

          When using FHI-aims, please cite the following reference:

            Volker Blum, Ralf Gehrke, Felix Hanke, Paula Havu,
            Ville Havu, Xinguo Ren, Karsten Reuter, and Matthias Scheffler,
            'Ab Initio Molecular Simulations with Numeric Atom-Centered Orbitals',
            Computer Physics Communications 180, 2175-2196 (2009)

          In addition, many other developments in FHI-aims are likely important for
          your particular application. A partial list of references is given at the end of
          this file. Thank you for giving credit to the authors of these developments.

          For any questions about FHI-aims, please visit our slack channel at

            https://fhi-aims.slack.com

          and our main development and support site at

            https://aims-git.rz-berlin.mpg.de .

          The latter site, in particular, has a wiki to collect information, as well
          as an issue tracker to log discussions, suggest improvements, and report issues
          or bugs. https://aims-git.rz-berlin.mpg.de is also the main development site
          of the project and all new and updated code versions can be obtained there.
          Please send an email to aims-coordinators@fhi-berlin.mpg.de and we will add
          you to these sites. They are for you and everyone is welcome there.

------------------------------------------------------------



  Date     :  20240113, Time     :  021200.365
  Time zero on CPU 1             :   0.115506200000000E+01  s.
  Internal wall clock time zero  :           474343920.365  s.

  FHI-aims created a unique identifier for this run for later identification
  aims_uuid : A486ECF9-0C40-4229-A259-CA910359CD47

  Build configuration of the current instance of FHI-aims
  -------------------------------------------------------
  FHI-aims version      : 220821
  Commit number         : GITDIR-NOTFOUND
  CMake host system     : Linux-3.10.0-1160.59.1.el7.x86_64
  CMake version         : 3.15.4
  Fortran compiler      : /opt/intel/oneapi/mpi/2021.6.0/bin/mpiifort (Intel) version 20.2.6.20220226
  Fortran compiler flags: -O3 -ip -fp-model precise -O3
  C compiler            : /opt/intel/oneapi/compiler/2022.1.0/linux/bin/intel64/icc (Intel) version 20.2.6.20220226
  C compiler flags      : -O3 -ip -fp-model precise -std=gnu99 -O3 -DNDEBUG
  Using MPI
  Using ScaLAPACK
  Using LibXC
  Using i-PI
  Using RLSY
  Linking against: /opt/intel/oneapi/mkl/2022.1.0/lib/intel64/libmkl_intel_lp64.so
                   /opt/intel/oneapi/mkl/2022.1.0/lib/intel64/libmkl_sequential.so
                   /opt/intel/oneapi/mkl/2022.1.0/lib/intel64/libmkl_core.so
                   /opt/intel/oneapi/mkl/2022.1.0/lib/intel64/libmkl_blacs_intelmpi_lp64.so
                   /opt/intel/oneapi/mkl/2022.1.0/lib/intel64/libmkl_scalapack_lp64.so

  Using       64 parallel tasks.
  Task        0 on host node004.cluster reporting.
  Task        1 on host node004.cluster reporting.
  Task        2 on host node004.cluster reporting.
  Task        3 on host node004.cluster reporting.
  Task        4 on host node004.cluster reporting.
  Task        5 on host node004.cluster reporting.
  Task        6 on host node004.cluster reporting.
  Task        7 on host node004.cluster reporting.
  Task        8 on host node004.cluster reporting.
  Task        9 on host node004.cluster reporting.
  Task       10 on host node004.cluster reporting.
  Task       11 on host node004.cluster reporting.
  Task       12 on host node004.cluster reporting.
  Task       13 on host node004.cluster reporting.
  Task       14 on host node004.cluster reporting.
  Task       15 on host node004.cluster reporting.
  Task       16 on host node004.cluster reporting.
  Task       17 on host node004.cluster reporting.
  Task       18 on host node004.cluster reporting.
  Task       19 on host node004.cluster reporting.
  Task       20 on host node004.cluster reporting.
  Task       21 on host node004.cluster reporting.
  Task       22 on host node004.cluster reporting.
  Task       23 on host node004.cluster reporting.
  Task       24 on host node004.cluster reporting.
  Task       25 on host node004.cluster reporting.
  Task       26 on host node004.cluster reporting.
  Task       27 on host node004.cluster reporting.
  Task       28 on host node004.cluster reporting.
  Task       29 on host node004.cluster reporting.
  Task       30 on host node004.cluster reporting.
  Task       31 on host node004.cluster reporting.
  Task       32 on host node004.cluster reporting.
  Task       33 on host node004.cluster reporting.
  Task       34 on host node004.cluster reporting.
  Task       35 on host node004.cluster reporting.
  Task       36 on host node004.cluster reporting.
  Task       37 on host node004.cluster reporting.
  Task       38 on host node004.cluster reporting.
  Task       39 on host node004.cluster reporting.
  Task       40 on host node004.cluster reporting.
  Task       41 on host node004.cluster reporting.
  Task       42 on host node004.cluster reporting.
  Task       43 on host node004.cluster reporting.
  Task       44 on host node004.cluster reporting.
  Task       45 on host node004.cluster reporting.
  Task       46 on host node004.cluster reporting.
  Task       47 on host node004.cluster reporting.
  Task       48 on host node004.cluster reporting.
  Task       49 on host node004.cluster reporting.
  Task       50 on host node004.cluster reporting.
  Task       51 on host node004.cluster reporting.
  Task       52 on host node004.cluster reporting.
  Task       53 on host node004.cluster reporting.
  Task       54 on host node004.cluster reporting.
  Task       55 on host node004.cluster reporting.
  Task       56 on host node004.cluster reporting.
  Task       57 on host node004.cluster reporting.
  Task       58 on host node004.cluster reporting.
  Task       59 on host node004.cluster reporting.
  Task       60 on host node004.cluster reporting.
  Task       61 on host node004.cluster reporting.
  Task       62 on host node004.cluster reporting.
  Task       63 on host node004.cluster reporting.

  Performing system and environment tests:
  | Environment variable OMP_NUM_THREADS correctly set to 1.
  | Checking for ScaLAPACK...
  | Testing pdtran()...
  | All pdtran() tests passed.

  Obtaining array dimensions for all initial allocations:
  
  -----------------------------------------------------------------------
  Parsing control.in (first pass over file, find array dimensions only).
  The contents of control.in will be repeated verbatim below
  unless switched off by setting 'verbatim_writeout .false.' .
  in the first line of control.in .
  -----------------------------------------------------------------------
  
  #===============================================================================
  # FHI-aims file: /nethome/draij004/aims_runs/5-PdAu-project/20-12-2023-PdAu-slab-models/20-12-2023-model-1/11-01-2024-O2-ontop-90-pbe-light/control.in
  # Created using the Atomic Simulation Environment (ASE)
  # Thu Jan 11 11:06:24 2024
  #===============================================================================
  xc                                 pbe
  vdw_correction_hirshfeld
  relativistic                       atomic_zora scalar
  output_level                       normal
  k_grid                             7 7 1
  sc_accuracy_rho                    1e-06
  sc_accuracy_etot                   1e-06
  spin                               none
  charge                             0.0
  override_illconditioning           .true.
  aggregated_energy_tolerance        0.01
  #===============================================================================
  
  ################################################################################
  #
  #  FHI-aims code project
  #  Volker Blum, Fritz Haber Institute Berlin, 2009
  #
  #  Suggested "tight" defaults for Au atom (to be pasted into control.in file)
  #
  #  Feb. 16, 2013: Commented out the "h" basis function from tier 1 in the default.
  #                 Au is the only element to have this, and it usually does not
  #                 make a difference. With the advent of hybrid functionals, the
  #                 extra effort is critical.
  #
  ################################################################################
    species        Au
  #     global species definitions
      nucleus             79
      mass                196.966569
  #
      l_hartree           6
  #
      cut_pot             4.0  2.0  1.0
      basis_dep_cutoff    1e-4
  #
      radial_base         73 7.0
      radial_multiplier   2
      angular_grids specified
        division   0.3416   50
        division   0.7206  110
        division   1.1171  194
        division   1.2821  302
        division   1.5560  434
  #      division   2.1046  590
  #      division   2.2363  770
  #      division   2.2710  974
  #      division   2.8078 1202
  #      outer_grid 1202
        outer_grid  434
   ################################################################################
  #
  #  Definition of "minimal" basis
  #
  ################################################################################
  #     valence basis states
      valence      6  s   1.
      valence      5  p   6.
      valence      5  d  10.
      valence      4  f  14.
  #     ion occupancy
      ion_occ     6  s   0.
      ion_occ     5  p   6.
      ion_occ     5  d   9.
      ion_occ     4  f   14.
  ################################################################################
  #
  #  Suggested additional basis functions. For production calculations,
  #  uncomment them one after another (the most important basis functions are
  #  listed first).
  #
  #  Constructed for dimers: 2.10, 2.45, 3.00, 4.00 AA
  #
  ################################################################################
  #  "First tier" - max. impr. -161.60  meV, min. impr. -4.53 meV
       ionic 6 p auto
       hydro 4 f 7.4
       ionic 6 s auto
       hydro 5 g 10
       hydro 6 h 12.8
       hydro 3 d 2.5
  #  "Second tier" - max. impr. -2.46  meV, min. impr. -0.28 meV
  #     hydro 5 f 14.8
  #     hydro 4 d 3.9
  #     hydro 3 p 3.3
  #     hydro 1 s 0.45
  #     hydro 5 g 16.4
  #     hydro 6 h 13.6
  #  "Third tier" - max. impr. -0.49  meV, min. impr. -0.09 meV
  #     hydro 4 f 5.2
  #     hydro 4 d 5
  #     hydro 5 g 8
  #     hydro 5 p 8.2
  #     hydro 6 d 12.4
  #     hydro 6 s 14.8
  #  Further basis functions: -0.08 meV and below
  #     hydro 5 f 18.8
  #     hydro 5 g 20
  #    hydro 5 g 15.2
  ################################################################################
  #
  #  FHI-aims code project
  #  Volker Blum, Fritz Haber Institute Berlin, 2009
  #
  #  Suggested "tight" defaults for Pd atom (to be pasted into control.in file)
  #
  ################################################################################
    species        Pd
  #     global species definitions
      nucleus             46
      mass                106.42
  #
      l_hartree           6
  #
      cut_pot             4.0  2.0  1.0
      basis_dep_cutoff    1e-4
  #
      radial_base         62 7.0
      radial_multiplier   2
      angular_grids specified
        division   0.3627   50
        division   0.7349  110
        division   1.0624  194
        division   1.2496  302
        division   1.6740  434
  #      division   2.0126  590
  #      division   2.0830  770
  #      division   2.7936 1202
  #       outer_grid  974
        outer_grid  434
  ################################################################################
  #
  #  Definition of "minimal" basis
  #
  ################################################################################
  #     valence basis states
      valence      5  s   1.
      valence      4  p   6.
      valence      4  d   9.
  #     ion occupancy
      ion_occ     5  s   0.
      ion_occ     4  p   6.
      ion_occ     4  d   8.
  ################################################################################
  #
  #  Suggested additional basis functions. For production calculations,
  #  uncomment them one after another (the most important basis functions are
  #  listed first).
  #
  #  Constructed for dimers: 2.0 A, 2.275 A, 2.75 A, 3.75 A
  #
  ################################################################################
  #  "First tier" - max. impr. -120.76  meV, min. impr. -5.71 meV
       ionic 5 p auto
       hydro 4 f 8
       hydro 5 g 10
       hydro 3 s 2.6
       hydro 3 d 2.5
  #  "Second tier" - max. impr. -5.00  meV, min. impr. -0.62 meV
  #     hydro 5 f 17.2
  #     hydro 6 h 14
  #     hydro 4 d 4
  #     hydro 5 f 7.6
  #     hydro 3 p 3.3
  #     hydro 4 s 9.4
  #  "Third tier" - max. impr. -0.54  meV, min. impr. -0.14 meV
  #     hydro 4 f 20
  #     hydro 5 g 12.8
  #     hydro 5 d 9.8
  #     hydro 6 h 15.2
  #     hydro 5 s 10
  #     hydro 6 p 9.8
  #  "Fourth tier" - max. impr. -0.15  meV, min. impr. -0.05 meV
  #     hydro 5 f 9.2
  #     hydro 2 s 5.6
  #     hydro 5 f 43.2
  #     hydro 5 d 13.2
  #     hydro 5 g 14
  #     hydro 4 p 4.7
  ################################################################################
  #
  #  FHI-aims code project
  #  Volker Blum, Fritz Haber Institute Berlin, 2009
  #
  #  Suggested "tight" defaults for O atom (to be pasted into control.in file)
  #
  ################################################################################
    species        O
  #     global species definitions
      nucleus             8
      mass                15.9994
  #
      l_hartree           6
  #
      cut_pot             4.0  2.0  1.0
      basis_dep_cutoff    1e-4
  #
      radial_base         36 7.0
      radial_multiplier   2
       angular_grids specified
        division   0.1817   50
        division   0.3417  110
        division   0.4949  194
        division   0.6251  302
        division   0.8014  434
  #      division   0.8507  590
  #      division   0.8762  770
  #      division   0.9023  974
  #      division   1.2339 1202
  #      outer_grid 974
        outer_grid  434
  ################################################################################
  #
  #  Definition of "minimal" basis
  #
  ################################################################################
  #     valence basis states
      valence      2  s   2.
      valence      2  p   4.
  #     ion occupancy
      ion_occ      2  s   1.
      ion_occ      2  p   3.
  ################################################################################
  #
  #  Suggested additional basis functions. For production calculations,
  #  uncomment them one after another (the most important basis functions are
  #  listed first).
  #
  #  Constructed for dimers: 1.0 A, 1.208 A, 1.5 A, 2.0 A, 3.0 A
  #
  ################################################################################
  #  "First tier" - improvements: -699.05 meV to -159.38 meV
       hydro 2 p 1.8
       hydro 3 d 7.6
       hydro 3 s 6.4
  #  "Second tier" - improvements: -49.91 meV to -5.39 meV
  #     hydro 4 f 11.6
  #     hydro 3 p 6.2
  #     hydro 3 d 5.6
  #     hydro 5 g 17.6
  #     hydro 1 s 0.75
  #  "Third tier" - improvements: -2.83 meV to -0.50 meV
  #     ionic 2 p auto
  #     hydro 4 f 10.8
  #     hydro 4 d 4.7
  #     hydro 2 s 6.8
  #  "Fourth tier" - improvements: -0.40 meV to -0.12 meV
  #     hydro 3 p 5
  #     hydro 3 s 3.3
  #     hydro 5 g 15.6
  #     hydro 4 f 17.6
  #     hydro 4 d 14
  # Further basis functions - -0.08 meV and below
  #     hydro 3 s 2.1
  #     hydro 4 d 11.6
  #     hydro 3 p 16
  #     hydro 2 s 17.2
  ################################################################################
  #
  # For methods that use the localized form of the "resolution of identity" for
  # the two-electron Coulomb operator (RI_method LVL), particularly Hartree-Fock and
  # hybrid density functional calculations, the highest accuracy can be obtained by
  # uncommenting the line beginning with "for_aux"  below, thus adding an extra g radial
  # function to the construction of the product basis set for the expansion.
  # See Ref. New J. Phys. 17, 093020 (2015) for more information, particularly Figs. 1 and 6.
  #
  ################################################################################
  #
  # for_aux hydro 5 g 6.0
  
  -----------------------------------------------------------------------
  Completed first pass over input file control.in .
  -----------------------------------------------------------------------
  
  
  -----------------------------------------------------------------------
  Parsing geometry.in (first pass over file, find array dimensions only).
  The contents of geometry.in will be repeated verbatim below
  unless switched off by setting 'verbatim_writeout .false.' .
  in the first line of geometry.in .
  -----------------------------------------------------------------------
  
  #
  # This is the geometry file that corresponds to the current relaxation step.
  # If you do not want this file to be written, set the "write_restart_geometry" flag to .false.
  #  aims_uuid : B83ED053-3E4B-44D9-AC26-299D1940B429
  #
  lattice_vector     11.53627020      0.00000000      0.00000000
  lattice_vector      5.76813510      9.99070306      0.00000000
  lattice_vector      0.00000000      0.00000000     41.77415647
  atom       1.44203378      0.83255859      0.00000000 Au
    constrain_relaxation .true.
  atom       4.32610133      0.83255859      0.00000000 Pd
    constrain_relaxation .true.
  atom       7.21016888      0.83255859      0.00000000 Au
    constrain_relaxation .true.
  atom      10.09423643      0.83255859      0.00000000 Au
    constrain_relaxation .true.
  atom       2.88406755      3.33023435      0.00000000 Au
    constrain_relaxation .true.
  atom       5.76813510      3.33023435      0.00000000 Au
    constrain_relaxation .true.
  atom       8.65220265      3.33023435      0.00000000 Au
    constrain_relaxation .true.
  atom      11.53627020      3.33023435      0.00000000 Au
    constrain_relaxation .true.
  atom       4.32610133      5.82791012      0.00000000 Au
    constrain_relaxation .true.
  atom       7.21016888      5.82791012      0.00000000 Pd
    constrain_relaxation .true.
  atom      10.09423643      5.82791012      0.00000000 Au
    constrain_relaxation .true.
  atom      12.97830398      5.82791012      0.00000000 Au
    constrain_relaxation .true.
  atom       5.76813510      8.32558588      0.00000000 Au
    constrain_relaxation .true.
  atom       8.65220265      8.32558588      0.00000000 Pd
    constrain_relaxation .true.
  atom      11.53627020      8.32558588      0.00000000 Pd
    constrain_relaxation .true.
  atom      14.42033775      8.32558588      0.00000000 Pd
    constrain_relaxation .true.
  atom       0.00000000      1.66511718      2.35483129 Au
    constrain_relaxation .true.
  atom       2.88406755      1.66511718      2.35483129 Pd
    constrain_relaxation .true.
  atom       5.76813510      1.66511718      2.35483129 Au
    constrain_relaxation .true.
  atom       8.65220265      1.66511718      2.35483129 Au
    constrain_relaxation .true.
  atom       1.44203378      4.16279294      2.35483129 Au
    constrain_relaxation .true.
  atom       4.32610133      4.16279294      2.35483129 Au
    constrain_relaxation .true.
  atom       7.21016888      4.16279294      2.35483129 Au
    constrain_relaxation .true.
  atom      10.09423643      4.16279294      2.35483129 Pd
    constrain_relaxation .true.
  atom       2.88406755      6.66046871      2.35483129 Au
    constrain_relaxation .true.
  atom       5.76813510      6.66046871      2.35483129 Au
    constrain_relaxation .true.
  atom       8.65220265      6.66046871      2.35483129 Au
    constrain_relaxation .true.
  atom      11.53627020      6.66046871      2.35483129 Pd
    constrain_relaxation .true.
  atom       4.32610133      9.15814447      2.35483129 Au
    constrain_relaxation .true.
  atom       7.21016888      9.15814447      2.35483129 Au
    constrain_relaxation .true.
  atom      10.09423643      9.15814447      2.35483129 Au
    constrain_relaxation .true.
  atom      12.97830398      9.15814447      2.35483129 Pd
    constrain_relaxation .true.
  atom       0.00000000      0.00000000      4.70966259 Au
    constrain_relaxation .true.
  atom       2.88406755      0.00000000      4.70966259 Au
    constrain_relaxation .true.
  atom       5.76813510      0.00000000      4.70966259 Au
    constrain_relaxation .true.
  atom       8.65220265      0.00000000      4.70966259 Au
    constrain_relaxation .true.
  atom       1.44203378      2.49767576      4.70966259 Pd
    constrain_relaxation .true.
  atom       4.32610133      2.49767576      4.70966259 Au
    constrain_relaxation .true.
  atom       7.21016888      2.49767576      4.70966259 Au
    constrain_relaxation .true.
  atom      10.09423643      2.49767576      4.70966259 Au
    constrain_relaxation .true.
  atom       2.88406755      4.99535153      4.70966259 Pd
    constrain_relaxation .true.
  atom       5.76813510      4.99535153      4.70966259 Pd
    constrain_relaxation .true.
  atom       8.65220265      4.99535153      4.70966259 Au
    constrain_relaxation .true.
  atom      11.53627020      4.99535153      4.70966259 Au
    constrain_relaxation .true.
  atom       4.32610133      7.49302729      4.70966259 Pd
    constrain_relaxation .true.
  atom       7.21016888      7.49302729      4.70966259 Pd
    constrain_relaxation .true.
  atom      10.09423643      7.49302729      4.70966259 Au
    constrain_relaxation .true.
  atom      12.97830398      7.49302729      4.70966259 Au
    constrain_relaxation .true.
  atom       1.44203378      0.83255859      7.06449388 Au
    constrain_relaxation .true.
  atom       4.32610133      0.83255859      7.06449388 Au
    constrain_relaxation .true.
  atom       7.21016888      0.83255859      7.06449388 Au
    constrain_relaxation .true.
  atom      10.09423643      0.83255859      7.06449388 Pd
    constrain_relaxation .true.
  atom       2.88406755      3.33023435      7.06449388 Au
    constrain_relaxation .true.
  atom       5.76813510      3.33023435      7.06449388 Pd
    constrain_relaxation .true.
  atom       8.65220265      3.33023435      7.06449388 Pd
    constrain_relaxation .true.
  atom      11.53627020      3.33023435      7.06449388 Au
    constrain_relaxation .true.
  atom       4.32610133      5.82791012      7.06449388 Pd
    constrain_relaxation .true.
  atom       7.21016888      5.82791012      7.06449388 Pd
    constrain_relaxation .true.
  atom      10.09423643      5.82791012      7.06449388 Pd
    constrain_relaxation .true.
  atom      12.97830398      5.82791012      7.06449388 Au
    constrain_relaxation .true.
  atom       5.76813510      8.32558588      7.06449388 Au
    constrain_relaxation .true.
  atom       8.65220265      8.32558588      7.06449388 Au
    constrain_relaxation .true.
  atom      11.53627020      8.32558588      7.06449388 Au
    constrain_relaxation .true.
  atom      14.42033775      8.32558588      7.06449388 Au
    constrain_relaxation .true.
  atom       0.00000000      1.66511718      9.41932518 Au
    constrain_relaxation .true.
  atom       2.88406755      1.66511718      9.41932518 Pd
    constrain_relaxation .true.
  atom       5.76813510      1.66511718      9.41932518 Au
    constrain_relaxation .true.
  atom       8.65220265      1.66511718      9.41932518 Pd
    constrain_relaxation .true.
  atom       1.44203378      4.16279294      9.41932518 Au
    constrain_relaxation .true.
  atom       4.32610133      4.16279294      9.41932518 Au
    constrain_relaxation .true.
  atom       7.21016888      4.16279294      9.41932518 Pd
    constrain_relaxation .true.
  atom      10.09423643      4.16279294      9.41932518 Au
    constrain_relaxation .true.
  atom       2.88406755      6.66046871      9.41932518 Au
    constrain_relaxation .true.
  atom       5.76813510      6.66046871      9.41932518 Au
    constrain_relaxation .true.
  atom       8.65220265      6.66046871      9.41932518 Au
    constrain_relaxation .true.
  atom      11.53627020      6.66046871      9.41932518 Pd
    constrain_relaxation .true.
  atom       4.32610133      9.15814447      9.41932518 Au
    constrain_relaxation .true.
  atom       7.21016888      9.15814447      9.41932518 Au
    constrain_relaxation .true.
  atom      10.09423643      9.15814447      9.41932518 Au
    constrain_relaxation .true.
  atom      12.97830398      9.15814447      9.41932518 Pd
    constrain_relaxation .true.
  atom      -0.01705913      0.03263381     11.86344342 Au
  atom       2.88977937      0.02534144     11.81943816 Au
  atom       5.78571722      0.01289809     11.80877473 Au
  atom       8.64166652      0.00666562     11.77559716 Au
  atom       1.44932131      2.50079621     11.83206760 Au
  atom       4.30658861      2.49154509     11.82037178 Au
  atom       7.21422289      2.49793719     11.76605630 Au
  atom      10.09736423      2.47996136     11.81144678 Au
  atom       2.88150064      4.99586556     11.86637988 Au
  atom       5.74182309      4.97362948     11.77342979 Au
  atom       8.66061538      4.95385252     11.81155392 Au
  atom      11.55705231      5.00786716     11.80887691 Au
  atom       4.30512910      7.50228749     11.85394831 Au
  atom       7.18146353      7.55839143     11.85306309 Au
  atom      10.15622327      7.51180803     11.76270945 Au
  atom      12.99106457      7.50587099     11.78077522 Au
  atom       7.51789370      6.75702826     13.94080855 O
  atom       8.48654406      5.86495645     13.92690934 O
  #
  # What follows is the current estimated Hessian matrix constructed by the BFGS algorithm.
  # This is NOT the true Hessian matrix of the system.
  # If you do not want this information here, switch it off using the "hessian_to_restart_geometry" keyword.
  #
  trust_radius             0.2917102631
  hessian_file
  
  -----------------------------------------------------------------------
  Completed first pass over input file geometry.in .
  -----------------------------------------------------------------------
  

  Basic array size parameters:
  | Number of species                 :        3
  | Number of atoms                   :       98
  | Number of lattice vectors         :        3
  | Max. basis fn. angular momentum   :        5
  | Max. atomic/ionic basis occupied n:        6
  | Max. number of basis fn. types    :        3
  | Max. radial fns per species/type  :       14
  | Max. logarithmic grid size        :     1488
  | Max. radial integration grid size :      147
  | Max. angular integration grid size:      434
  | Max. angular grid division number :        8
  | Radial grid for Hartree potential :     1488
  | Number of spin channels           :        1

------------------------------------------------------------
          Reading file control.in.
------------------------------------------------------------
  XC: Using PBE gradient-corrected functionals.
  Scalar relativistic treatment of kinetic energy: on-site free-atom approximation to ZORA.
  Requested output level: normal
  Found k-point grid:         7         7         1
  Convergence accuracy of self-consistent charge density:  0.1000E-05
  Convergence accuracy of total energy:  0.1000E-05
  Spin treatment: No spin polarisation.
  Charge =   0.000000E+00: Neutral system requested explicitly.
  override_illconditioning: Explicitly overriding any built-in checks for an ill-conditioned overlap matrix.
  *** WARNING: If you use this flag, you should really know what you are doing.
  *** DO NOT keep this flag set by default in all your control.in files.
  Max energy increase across multiple BFGS steps:   0.100000E-01 eV
 
  Reading configuration options for species Au                  .
  | Found nuclear charge :  79.0000
  | Found atomic mass :    196.966569000000      amu
  | Found l_max for Hartree potential  :   6
  | Found cutoff potl. onset [A], width [A], scale factor :    4.00000    2.00000    1.00000
  | Threshold for basis-dependent cutoff potential is   0.100000E-03
  | Found data for basic radial integration grid :    73 points, outermost radius =    7.000 A
  | Found multiplier for basic radial grid :   2
  | Found angular grid specification: user-specified.
  | Specified grid contains     6 separate shells.
  | Check grid settings after all constraints further below.
  | Found free-atom valence shell :  6 s   1.000
  | Found free-atom valence shell :  5 p   6.000
  | Found free-atom valence shell :  5 d  10.000
  | Found free-atom valence shell :  4 f  14.000
  | Found free-ion valence shell :  6 s   0.000
  | Found free-ion valence shell :  5 p   6.000
  | Found free-ion valence shell :  5 d   9.000
  | Found free-ion valence shell :  4 f  14.000
  | Found ionic basis function :  6 p , default cutoff radius.
  | Found hydrogenic basis function :  4 f   7.400
  | Found ionic basis function :  6 s , default cutoff radius.
  | Found hydrogenic basis function :  5 g  10.000
  | Found hydrogenic basis function :  6 h  12.800
  | Found hydrogenic basis function :  3 d   2.500
  Species Au                  : Missing cutoff potential type.
  Defaulting to exp(1/x)/(1-x)^2 type cutoff potential.
  Species Au: No 'logarithmic' tag. Using default grid for free atom:
  | Default logarithmic grid data [bohr] : 0.1000E-03 0.1000E+03 0.1012E+01
  | Will include ionic basis functions of  2.0-fold positive Au                   ion.
  Species Au: On-site basis accuracy parameter (for Gram-Schmidt orthonormalisation) not specified.
  Using default value basis_acc =  0.1000000E-03.
  Species Au                  : Using default innermost maximum threshold i_radial=  2 for radial functions.
  Species Au                  : Default cutoff onset for free atom density etc. : 0.40000000E+01 AA.
  Species Au                  : Basic radial grid will be enhanced according to radial_multiplier =   2, to contain   147 grid points.
 
  Reading configuration options for species Pd                  .
  | Found nuclear charge :  46.0000
  | Found atomic mass :    106.420000000000      amu
  | Found l_max for Hartree potential  :   6
  | Found cutoff potl. onset [A], width [A], scale factor :    4.00000    2.00000    1.00000
  | Threshold for basis-dependent cutoff potential is   0.100000E-03
  | Found data for basic radial integration grid :    62 points, outermost radius =    7.000 A
  | Found multiplier for basic radial grid :   2
  | Found angular grid specification: user-specified.
  | Specified grid contains     6 separate shells.
  | Check grid settings after all constraints further below.
  | Found free-atom valence shell :  5 s   1.000
  | Found free-atom valence shell :  4 p   6.000
  | Found free-atom valence shell :  4 d   9.000
  | Found free-ion valence shell :  5 s   0.000
  | Found free-ion valence shell :  4 p   6.000
  | Found free-ion valence shell :  4 d   8.000
  | Found ionic basis function :  5 p , default cutoff radius.
  | Found hydrogenic basis function :  4 f   8.000
  | Found hydrogenic basis function :  5 g  10.000
  | Found hydrogenic basis function :  3 s   2.600
  | Found hydrogenic basis function :  3 d   2.500
  Species Pd                  : Missing cutoff potential type.
  Defaulting to exp(1/x)/(1-x)^2 type cutoff potential.
  Species Pd: No 'logarithmic' tag. Using default grid for free atom:
  | Default logarithmic grid data [bohr] : 0.1000E-03 0.1000E+03 0.1012E+01
  | Will include ionic basis functions of  2.0-fold positive Pd                   ion.
  Species Pd: On-site basis accuracy parameter (for Gram-Schmidt orthonormalisation) not specified.
  Using default value basis_acc =  0.1000000E-03.
  Species Pd                  : Using default innermost maximum threshold i_radial=  2 for radial functions.
  Species Pd                  : Default cutoff onset for free atom density etc. : 0.40000000E+01 AA.
  Species Pd                  : Basic radial grid will be enhanced according to radial_multiplier =   2, to contain   125 grid points.
 
  Reading configuration options for species O                   .
  | Found nuclear charge :   8.0000
  | Found atomic mass :    15.9994000000000      amu
  | Found l_max for Hartree potential  :   6
  | Found cutoff potl. onset [A], width [A], scale factor :    4.00000    2.00000    1.00000
  | Threshold for basis-dependent cutoff potential is   0.100000E-03
  | Found data for basic radial integration grid :    36 points, outermost radius =    7.000 A
  | Found multiplier for basic radial grid :   2
  | Found angular grid specification: user-specified.
  | Specified grid contains     6 separate shells.
  | Check grid settings after all constraints further below.
  | Found free-atom valence shell :  2 s   2.000
  | Found free-atom valence shell :  2 p   4.000
  | Found free-ion valence shell :  2 s   1.000
  | Found free-ion valence shell :  2 p   3.000
  | Found hydrogenic basis function :  2 p   1.800
  | Found hydrogenic basis function :  3 d   7.600
  | Found hydrogenic basis function :  3 s   6.400
  Species O                   : Missing cutoff potential type.
  Defaulting to exp(1/x)/(1-x)^2 type cutoff potential.
  Species O : No 'logarithmic' tag. Using default grid for free atom:
  | Default logarithmic grid data [bohr] : 0.1000E-03 0.1000E+03 0.1012E+01
  Species O : On-site basis accuracy parameter (for Gram-Schmidt orthonormalisation) not specified.
  Using default value basis_acc =  0.1000000E-03.
  Species O                   : Using default innermost maximum threshold i_radial=  2 for radial functions.
  Species O                   : Default cutoff onset for free atom density etc. : 0.40000000E+01 AA.
  Species O                   : Basic radial grid will be enhanced according to radial_multiplier =   2, to contain    73 grid points.
 
  Finished reading input file 'control.in'.
 
------------------------------------------------------------


------------------------------------------------------------
          Reading geometry description geometry.in.
------------------------------------------------------------
 No relaxation requested - ignoring relaxation constraint.
 No relaxation requested - ignoring relaxation constraint.
 No relaxation requested - ignoring relaxation constraint.
 No relaxation requested - ignoring relaxation constraint.
 No relaxation requested - ignoring relaxation constraint.
 No relaxation requested - ignoring relaxation constraint.
 No relaxation requested - ignoring relaxation constraint.
 No relaxation requested - ignoring relaxation constraint.
 No relaxation requested - ignoring relaxation constraint.
 No relaxation requested - ignoring relaxation constraint.
 No relaxation requested - ignoring relaxation constraint.
 No relaxation requested - ignoring relaxation constraint.
 No relaxation requested - ignoring relaxation constraint.
 No relaxation requested - ignoring relaxation constraint.
 No relaxation requested - ignoring relaxation constraint.
 No relaxation requested - ignoring relaxation constraint.
 No relaxation requested - ignoring relaxation constraint.
 No relaxation requested - ignoring relaxation constraint.
 No relaxation requested - ignoring relaxation constraint.
 No relaxation requested - ignoring relaxation constraint.
 No relaxation requested - ignoring relaxation constraint.
 No relaxation requested - ignoring relaxation constraint.
 No relaxation requested - ignoring relaxation constraint.
 No relaxation requested - ignoring relaxation constraint.
 No relaxation requested - ignoring relaxation constraint.
 No relaxation requested - ignoring relaxation constraint.
 No relaxation requested - ignoring relaxation constraint.
 No relaxation requested - ignoring relaxation constraint.
 No relaxation requested - ignoring relaxation constraint.
 No relaxation requested - ignoring relaxation constraint.
 No relaxation requested - ignoring relaxation constraint.
 No relaxation requested - ignoring relaxation constraint.
 No relaxation requested - ignoring relaxation constraint.
 No relaxation requested - ignoring relaxation constraint.
 No relaxation requested - ignoring relaxation constraint.
 No relaxation requested - ignoring relaxation constraint.
 No relaxation requested - ignoring relaxation constraint.
 No relaxation requested - ignoring relaxation constraint.
 No relaxation requested - ignoring relaxation constraint.
 No relaxation requested - ignoring relaxation constraint.
 No relaxation requested - ignoring relaxation constraint.
 No relaxation requested - ignoring relaxation constraint.
 No relaxation requested - ignoring relaxation constraint.
 No relaxation requested - ignoring relaxation constraint.
 No relaxation requested - ignoring relaxation constraint.
 No relaxation requested - ignoring relaxation constraint.
 No relaxation requested - ignoring relaxation constraint.
 No relaxation requested - ignoring relaxation constraint.
 No relaxation requested - ignoring relaxation constraint.
 No relaxation requested - ignoring relaxation constraint.
 No relaxation requested - ignoring relaxation constraint.
 No relaxation requested - ignoring relaxation constraint.
 No relaxation requested - ignoring relaxation constraint.
 No relaxation requested - ignoring relaxation constraint.
 No relaxation requested - ignoring relaxation constraint.
 No relaxation requested - ignoring relaxation constraint.
 No relaxation requested - ignoring relaxation constraint.
 No relaxation requested - ignoring relaxation constraint.
 No relaxation requested - ignoring relaxation constraint.
 No relaxation requested - ignoring relaxation constraint.
 No relaxation requested - ignoring relaxation constraint.
 No relaxation requested - ignoring relaxation constraint.
 No relaxation requested - ignoring relaxation constraint.
 No relaxation requested - ignoring relaxation constraint.
 No relaxation requested - ignoring relaxation constraint.
 No relaxation requested - ignoring relaxation constraint.
 No relaxation requested - ignoring relaxation constraint.
 No relaxation requested - ignoring relaxation constraint.
 No relaxation requested - ignoring relaxation constraint.
 No relaxation requested - ignoring relaxation constraint.
 No relaxation requested - ignoring relaxation constraint.
 No relaxation requested - ignoring relaxation constraint.
 No relaxation requested - ignoring relaxation constraint.
 No relaxation requested - ignoring relaxation constraint.
 No relaxation requested - ignoring relaxation constraint.
 No relaxation requested - ignoring relaxation constraint.
 No relaxation requested - ignoring relaxation constraint.
 No relaxation requested - ignoring relaxation constraint.
 No relaxation requested - ignoring relaxation constraint.
 No relaxation requested - ignoring relaxation constraint.
 * Large trust radius value found - resetting to the current value of max_atomic_move,      0.20000000 A.
  Found keyword 'hessian_file', indicating that this is the continuation of a structure optimization.
  However, the control.in file does not request the geometry to be optimized.
  Ignoring the request for a file 'hessian.aims' to be present.
  | The smallest distance between any two atoms is         1.31691641 AA.
  | The first atom of this pair is atom number                     97 .
  | The second atom of this pair is atom number                    98 .
  | Wigner-Seitz cell of the first atom image           0     0     0 .
  | (The Wigner-Seitz cell of the second atom is 0 0 0  by definition.)

  Symmetry information by spglib:
  | Precision set to  0.1E-04
  | Number of Operations  : 1
  | Space group           : 1
  | International         : P1        8
  | Schoenflies           : C1^1
  Input structure read successfully.
  The structure contains       98 atoms,  and a total of       6775.000 electrons.

  Input geometry:
  | Unit cell:
  |       11.53627020        0.00000000        0.00000000
  |        5.76813510        9.99070306        0.00000000
  |        0.00000000        0.00000000       41.77415647
  | Atomic structure:
  |       Atom                x [A]            y [A]            z [A]
  |    1: Species Au            1.44203378        0.83255859        0.00000000
  |    2: Species Pd            4.32610133        0.83255859        0.00000000
  |    3: Species Au            7.21016888        0.83255859        0.00000000
  |    4: Species Au           10.09423643        0.83255859        0.00000000
  |    5: Species Au            2.88406755        3.33023435        0.00000000
  |    6: Species Au            5.76813510        3.33023435        0.00000000
  |    7: Species Au            8.65220265        3.33023435        0.00000000
  |    8: Species Au           11.53627020        3.33023435        0.00000000
  |    9: Species Au            4.32610133        5.82791012        0.00000000
  |   10: Species Pd            7.21016888        5.82791012        0.00000000
  |   11: Species Au           10.09423643        5.82791012        0.00000000
  |   12: Species Au           12.97830398        5.82791012        0.00000000
  |   13: Species Au            5.76813510        8.32558588        0.00000000
  |   14: Species Pd            8.65220265        8.32558588        0.00000000
  |   15: Species Pd           11.53627020        8.32558588        0.00000000
  |   16: Species Pd           14.42033775        8.32558588        0.00000000
  |   17: Species Au            0.00000000        1.66511718        2.35483129
  |   18: Species Pd            2.88406755        1.66511718        2.35483129
  |   19: Species Au            5.76813510        1.66511718        2.35483129
  |   20: Species Au            8.65220265        1.66511718        2.35483129
  |   21: Species Au            1.44203378        4.16279294        2.35483129
  |   22: Species Au            4.32610133        4.16279294        2.35483129
  |   23: Species Au            7.21016888        4.16279294        2.35483129
  |   24: Species Pd           10.09423643        4.16279294        2.35483129
  |   25: Species Au            2.88406755        6.66046871        2.35483129
  |   26: Species Au            5.76813510        6.66046871        2.35483129
  |   27: Species Au            8.65220265        6.66046871        2.35483129
  |   28: Species Pd           11.53627020        6.66046871        2.35483129
  |   29: Species Au            4.32610133        9.15814447        2.35483129
  |   30: Species Au            7.21016888        9.15814447        2.35483129
  |   31: Species Au           10.09423643        9.15814447        2.35483129
  |   32: Species Pd           12.97830398        9.15814447        2.35483129
  |   33: Species Au            0.00000000        0.00000000        4.70966259
  |   34: Species Au            2.88406755        0.00000000        4.70966259
  |   35: Species Au            5.76813510        0.00000000        4.70966259
  |   36: Species Au            8.65220265        0.00000000        4.70966259
  |   37: Species Pd            1.44203378        2.49767576        4.70966259
  |   38: Species Au            4.32610133        2.49767576        4.70966259
  |   39: Species Au            7.21016888        2.49767576        4.70966259
  |   40: Species Au           10.09423643        2.49767576        4.70966259
  |   41: Species Pd            2.88406755        4.99535153        4.70966259
  |   42: Species Pd            5.76813510        4.99535153        4.70966259
  |   43: Species Au            8.65220265        4.99535153        4.70966259
  |   44: Species Au           11.53627020        4.99535153        4.70966259
  |   45: Species Pd            4.32610133        7.49302729        4.70966259
  |   46: Species Pd            7.21016888        7.49302729        4.70966259
  |   47: Species Au           10.09423643        7.49302729        4.70966259
  |   48: Species Au           12.97830398        7.49302729        4.70966259
  |   49: Species Au            1.44203378        0.83255859        7.06449388
  |   50: Species Au            4.32610133        0.83255859        7.06449388
  |   51: Species Au            7.21016888        0.83255859        7.06449388
  |   52: Species Pd           10.09423643        0.83255859        7.06449388
  |   53: Species Au            2.88406755        3.33023435        7.06449388
  |   54: Species Pd            5.76813510        3.33023435        7.06449388
  |   55: Species Pd            8.65220265        3.33023435        7.06449388
  |   56: Species Au           11.53627020        3.33023435        7.06449388
  |   57: Species Pd            4.32610133        5.82791012        7.06449388
  |   58: Species Pd            7.21016888        5.82791012        7.06449388
  |   59: Species Pd           10.09423643        5.82791012        7.06449388
  |   60: Species Au           12.97830398        5.82791012        7.06449388
  |   61: Species Au            5.76813510        8.32558588        7.06449388
  |   62: Species Au            8.65220265        8.32558588        7.06449388
  |   63: Species Au           11.53627020        8.32558588        7.06449388
  |   64: Species Au           14.42033775        8.32558588        7.06449388
  |   65: Species Au            0.00000000        1.66511718        9.41932518
  |   66: Species Pd            2.88406755        1.66511718        9.41932518
  |   67: Species Au            5.76813510        1.66511718        9.41932518
  |   68: Species Pd            8.65220265        1.66511718        9.41932518
  |   69: Species Au            1.44203378        4.16279294        9.41932518
  |   70: Species Au            4.32610133        4.16279294        9.41932518
  |   71: Species Pd            7.21016888        4.16279294        9.41932518
  |   72: Species Au           10.09423643        4.16279294        9.41932518
  |   73: Species Au            2.88406755        6.66046871        9.41932518
  |   74: Species Au            5.76813510        6.66046871        9.41932518
  |   75: Species Au            8.65220265        6.66046871        9.41932518
  |   76: Species Pd           11.53627020        6.66046871        9.41932518
  |   77: Species Au            4.32610133        9.15814447        9.41932518
  |   78: Species Au            7.21016888        9.15814447        9.41932518
  |   79: Species Au           10.09423643        9.15814447        9.41932518
  |   80: Species Pd           12.97830398        9.15814447        9.41932518
  |   81: Species Au           -0.01705913        0.03263381       11.86344342
  |   82: Species Au            2.88977937        0.02534144       11.81943816
  |   83: Species Au            5.78571722        0.01289809       11.80877473
  |   84: Species Au            8.64166652        0.00666562       11.77559716
  |   85: Species Au            1.44932131        2.50079621       11.83206760
  |   86: Species Au            4.30658861        2.49154509       11.82037178
  |   87: Species Au            7.21422289        2.49793719       11.76605630
  |   88: Species Au           10.09736423        2.47996136       11.81144678
  |   89: Species Au            2.88150064        4.99586556       11.86637988
  |   90: Species Au            5.74182309        4.97362948       11.77342979
  |   91: Species Au            8.66061538        4.95385252       11.81155392
  |   92: Species Au           11.55705231        5.00786716       11.80887691
  |   93: Species Au            4.30512910        7.50228749       11.85394831
  |   94: Species Au            7.18146353        7.55839143       11.85306309
  |   95: Species Au           10.15622327        7.51180803       11.76270945
  |   96: Species Au           12.99106457        7.50587099       11.78077522
  |   97: Species O             7.51789370        6.75702826       13.94080855
  |   98: Species O             8.48654406        5.86495645       13.92690934

  Lattice parameters for 3D lattice (in Angstroms) :    11.536270   11.536270   41.774156
  Angle(s) between unit vectors (in degrees)       :    90.000000   90.000000   60.000000


  Quantities derived from the lattice vectors (in Angstrom^-1):
  | Reciprocal lattice vector 1:  0.544646 -0.314452  0.000000
  | Reciprocal lattice vector 2:  0.000000  0.628903  0.000000
  | Reciprocal lattice vector 3:  0.000000  0.000000  0.150408
  | Unit cell volume                               :   0.481470E+04  Angstrom^3

  Fractional coordinates:
                         L1                L2                L3
       atom_frac         0.08333333        0.08333333        0.00000000  Au
       atom_frac         0.33333333        0.08333333        0.00000000  Pd
       atom_frac         0.58333333        0.08333333        0.00000000  Au
       atom_frac         0.83333333        0.08333333        0.00000000  Au
       atom_frac         0.08333333        0.33333333        0.00000000  Au
       atom_frac         0.33333333        0.33333333        0.00000000  Au
       atom_frac         0.58333333        0.33333333        0.00000000  Au
       atom_frac         0.83333333        0.33333333        0.00000000  Au
       atom_frac         0.08333333        0.58333333        0.00000000  Au
       atom_frac         0.33333333        0.58333333        0.00000000  Pd
       atom_frac         0.58333333        0.58333333        0.00000000  Au
       atom_frac         0.83333333        0.58333333        0.00000000  Au
       atom_frac         0.08333333        0.83333333        0.00000000  Au
       atom_frac         0.33333333        0.83333333        0.00000000  Pd
       atom_frac         0.58333333        0.83333333        0.00000000  Pd
       atom_frac         0.83333333        0.83333333        0.00000000  Pd
       atom_frac        -0.08333333        0.16666667        0.05637053  Au
       atom_frac         0.16666667        0.16666667        0.05637053  Pd
       atom_frac         0.41666667        0.16666667        0.05637053  Au
       atom_frac         0.66666667        0.16666667        0.05637053  Au
       atom_frac        -0.08333333        0.41666667        0.05637053  Au
       atom_frac         0.16666667        0.41666667        0.05637053  Au
       atom_frac         0.41666667        0.41666667        0.05637053  Au
       atom_frac         0.66666667        0.41666667        0.05637053  Pd
       atom_frac        -0.08333333        0.66666667        0.05637053  Au
       atom_frac         0.16666667        0.66666667        0.05637053  Au
       atom_frac         0.41666667        0.66666667        0.05637053  Au
       atom_frac         0.66666667        0.66666667        0.05637053  Pd
       atom_frac        -0.08333333        0.91666667        0.05637053  Au
       atom_frac         0.16666667        0.91666667        0.05637053  Au
       atom_frac         0.41666667        0.91666667        0.05637053  Au
       atom_frac         0.66666667        0.91666667        0.05637053  Pd
       atom_frac         0.00000000        0.00000000        0.11274106  Au
       atom_frac         0.25000000        0.00000000        0.11274106  Au
       atom_frac         0.50000000        0.00000000        0.11274106  Au
       atom_frac         0.75000000        0.00000000        0.11274106  Au
       atom_frac         0.00000000        0.25000000        0.11274106  Pd
       atom_frac         0.25000000        0.25000000        0.11274106  Au
       atom_frac         0.50000000        0.25000000        0.11274106  Au
       atom_frac         0.75000000        0.25000000        0.11274106  Au
       atom_frac         0.00000000        0.50000000        0.11274106  Pd
       atom_frac         0.25000000        0.50000000        0.11274106  Pd
       atom_frac         0.50000000        0.50000000        0.11274106  Au
       atom_frac         0.75000000        0.50000000        0.11274106  Au
       atom_frac         0.00000000        0.75000000        0.11274106  Pd
       atom_frac         0.25000000        0.75000000        0.11274106  Pd
       atom_frac         0.50000000        0.75000000        0.11274106  Au
       atom_frac         0.75000000        0.75000000        0.11274106  Au
       atom_frac         0.08333333        0.08333333        0.16911159  Au
       atom_frac         0.33333333        0.08333333        0.16911159  Au
       atom_frac         0.58333333        0.08333333        0.16911159  Au
       atom_frac         0.83333333        0.08333333        0.16911159  Pd
       atom_frac         0.08333333        0.33333333        0.16911159  Au
       atom_frac         0.33333333        0.33333333        0.16911159  Pd
       atom_frac         0.58333333        0.33333333        0.16911159  Pd
       atom_frac         0.83333333        0.33333333        0.16911159  Au
       atom_frac         0.08333333        0.58333333        0.16911159  Pd
       atom_frac         0.33333333        0.58333333        0.16911159  Pd
       atom_frac         0.58333333        0.58333333        0.16911159  Pd
       atom_frac         0.83333333        0.58333333        0.16911159  Au
       atom_frac         0.08333333        0.83333333        0.16911159  Au
       atom_frac         0.33333333        0.83333333        0.16911159  Au
       atom_frac         0.58333333        0.83333333        0.16911159  Au
       atom_frac         0.83333333        0.83333333        0.16911159  Au
       atom_frac        -0.08333333        0.16666667        0.22548212  Au
       atom_frac         0.16666667        0.16666667        0.22548212  Pd
       atom_frac         0.41666667        0.16666667        0.22548212  Au
       atom_frac         0.66666667        0.16666667        0.22548212  Pd
       atom_frac        -0.08333333        0.41666667        0.22548212  Au
       atom_frac         0.16666667        0.41666667        0.22548212  Au
       atom_frac         0.41666667        0.41666667        0.22548212  Pd
       atom_frac         0.66666667        0.41666667        0.22548212  Au
       atom_frac        -0.08333333        0.66666667        0.22548212  Au
       atom_frac         0.16666667        0.66666667        0.22548212  Au
       atom_frac         0.41666667        0.66666667        0.22548212  Au
       atom_frac         0.66666667        0.66666667        0.22548212  Pd
       atom_frac        -0.08333333        0.91666667        0.22548212  Au
       atom_frac         0.16666667        0.91666667        0.22548212  Au
       atom_frac         0.41666667        0.91666667        0.22548212  Au
       atom_frac         0.66666667        0.91666667        0.22548212  Pd
       atom_frac        -0.00311195        0.00326642        0.28399002  Au
       atom_frac         0.24922687        0.00253650        0.28293661  Au
       atom_frac         0.50087857        0.00129101        0.28268134  Au
       atom_frac         0.74875310        0.00066718        0.28188713  Au
       atom_frac         0.00047554        0.25031233        0.28323894  Au
       atom_frac         0.24861540        0.24938636        0.28295896  Au
       atom_frac         0.50033833        0.25002617        0.28165874  Au
       atom_frac         0.75115767        0.24822691        0.28274531  Au
       atom_frac        -0.00024823        0.50005145        0.28406031  Au
       atom_frac         0.24880631        0.49782577        0.28183525  Au
       atom_frac         0.50280612        0.49584624        0.28274787  Au
       atom_frac         0.75117509        0.50125273        0.28268379  Au
       atom_frac        -0.00228138        0.75092688        0.28376272  Au
       atom_frac         0.24424048        0.75654250        0.28374153  Au
       atom_frac         0.50443330        0.75187982        0.28157862  Au
       atom_frac         0.75046335        0.75128556        0.28201109  Au
       atom_frac         0.31350875        0.67633161        0.33371849  O
       atom_frac         0.44211949        0.58704141        0.33338577  O

 
  Finished reading input file 'geometry.in'.
 

 
  Consistency checks for stacksize environment parameter are next.
 
  | Maximum stacksize for task 0: unlimited
  | Maximum stacksize for task 1: unlimited
  | Maximum stacksize for task 2: unlimited
  | Maximum stacksize for task 3: unlimited
  | Maximum stacksize for task 4: unlimited
  | Maximum stacksize for task 5: unlimited
  | Maximum stacksize for task 6: unlimited
  | Maximum stacksize for task 7: unlimited
  | Maximum stacksize for task 8: unlimited
  | Maximum stacksize for task 9: unlimited
  | Maximum stacksize for task 10: unlimited
  | Maximum stacksize for task 11: unlimited
  | Maximum stacksize for task 12: unlimited
  | Maximum stacksize for task 13: unlimited
  | Maximum stacksize for task 14: unlimited
  | Maximum stacksize for task 15: unlimited
  | Maximum stacksize for task 16: unlimited
  | Maximum stacksize for task 17: unlimited
  | Maximum stacksize for task 18: unlimited
  | Maximum stacksize for task 19: unlimited
  | Maximum stacksize for task 20: unlimited
  | Maximum stacksize for task 21: unlimited
  | Maximum stacksize for task 22: unlimited
  | Maximum stacksize for task 23: unlimited
  | Maximum stacksize for task 24: unlimited
  | Maximum stacksize for task 25: unlimited
  | Maximum stacksize for task 26: unlimited
  | Maximum stacksize for task 27: unlimited
  | Maximum stacksize for task 28: unlimited
  | Maximum stacksize for task 29: unlimited
  | Maximum stacksize for task 30: unlimited
  | Maximum stacksize for task 31: unlimited
  | Maximum stacksize for task 32: unlimited
  | Maximum stacksize for task 33: unlimited
  | Maximum stacksize for task 34: unlimited
  | Maximum stacksize for task 35: unlimited
  | Maximum stacksize for task 36: unlimited
  | Maximum stacksize for task 37: unlimited
  | Maximum stacksize for task 38: unlimited
  | Maximum stacksize for task 39: unlimited
  | Maximum stacksize for task 40: unlimited
  | Maximum stacksize for task 41: unlimited
  | Maximum stacksize for task 42: unlimited
  | Maximum stacksize for task 43: unlimited
  | Maximum stacksize for task 44: unlimited
  | Maximum stacksize for task 45: unlimited
  | Maximum stacksize for task 46: unlimited
  | Maximum stacksize for task 47: unlimited
  | Maximum stacksize for task 48: unlimited
  | Maximum stacksize for task 49: unlimited
  | Maximum stacksize for task 50: unlimited
  | Maximum stacksize for task 51: unlimited
  | Maximum stacksize for task 52: unlimited
  | Maximum stacksize for task 53: unlimited
  | Maximum stacksize for task 54: unlimited
  | Maximum stacksize for task 55: unlimited
  | Maximum stacksize for task 56: unlimited
  | Maximum stacksize for task 57: unlimited
  | Maximum stacksize for task 58: unlimited
  | Maximum stacksize for task 59: unlimited
  | Maximum stacksize for task 60: unlimited
  | Maximum stacksize for task 61: unlimited
  | Maximum stacksize for task 62: unlimited
  | Maximum stacksize for task 63: unlimited
  | Current stacksize for task 0: unlimited
  | Current stacksize for task 1: unlimited
  | Current stacksize for task 2: unlimited
  | Current stacksize for task 3: unlimited
  | Current stacksize for task 4: unlimited
  | Current stacksize for task 5: unlimited
  | Current stacksize for task 6: unlimited
  | Current stacksize for task 7: unlimited
  | Current stacksize for task 8: unlimited
  | Current stacksize for task 9: unlimited
  | Current stacksize for task 10: unlimited
  | Current stacksize for task 11: unlimited
  | Current stacksize for task 12: unlimited
  | Current stacksize for task 13: unlimited
  | Current stacksize for task 14: unlimited
  | Current stacksize for task 15: unlimited
  | Current stacksize for task 16: unlimited
  | Current stacksize for task 17: unlimited
  | Current stacksize for task 18: unlimited
  | Current stacksize for task 19: unlimited
  | Current stacksize for task 20: unlimited
  | Current stacksize for task 21: unlimited
  | Current stacksize for task 22: unlimited
  | Current stacksize for task 23: unlimited
  | Current stacksize for task 24: unlimited
  | Current stacksize for task 25: unlimited
  | Current stacksize for task 26: unlimited
  | Current stacksize for task 27: unlimited
  | Current stacksize for task 28: unlimited
  | Current stacksize for task 29: unlimited
  | Current stacksize for task 30: unlimited
  | Current stacksize for task 31: unlimited
  | Current stacksize for task 32: unlimited
  | Current stacksize for task 33: unlimited
  | Current stacksize for task 34: unlimited
  | Current stacksize for task 35: unlimited
  | Current stacksize for task 36: unlimited
  | Current stacksize for task 37: unlimited
  | Current stacksize for task 38: unlimited
  | Current stacksize for task 39: unlimited
  | Current stacksize for task 40: unlimited
  | Current stacksize for task 41: unlimited
  | Current stacksize for task 42: unlimited
  | Current stacksize for task 43: unlimited
  | Current stacksize for task 44: unlimited
  | Current stacksize for task 45: unlimited
  | Current stacksize for task 46: unlimited
  | Current stacksize for task 47: unlimited
  | Current stacksize for task 48: unlimited
  | Current stacksize for task 49: unlimited
  | Current stacksize for task 50: unlimited
  | Current stacksize for task 51: unlimited
  | Current stacksize for task 52: unlimited
  | Current stacksize for task 53: unlimited
  | Current stacksize for task 54: unlimited
  | Current stacksize for task 55: unlimited
  | Current stacksize for task 56: unlimited
  | Current stacksize for task 57: unlimited
  | Current stacksize for task 58: unlimited
  | Current stacksize for task 59: unlimited
  | Current stacksize for task 60: unlimited
  | Current stacksize for task 61: unlimited
  | Current stacksize for task 62: unlimited
  | Current stacksize for task 63: unlimited
 
  Consistency checks for the contents of control.in are next.
 
  MPI_IN_PLACE appears to work with this MPI implementation.
  | Keeping use_mpi_in_place .true. (see manual).
  Target number of points in a grid batch is not set. Defaulting to  100
  Method for grid partitioning is not set. Defaulting to parallel hash+maxmin partitioning.
  Batch size limit is not set. Defaulting to    200
  By default, will store active basis functions for each batch.
  If in need of memory, prune_basis_once .false. can be used to disable this option.
  communication_type for Hartree potential was not specified.
  Defaulting to calc_hartree .
  Defaulting to Pulay charge density mixer.
  Pulay mixer: Number of relevant iterations not set.
  Defaulting to    8 iterations.
  Pulay mixer: Number of initial linear mixing iterations not set.
  Defaulting to    0 iterations.
  Work space size for distributed Hartree potential not set.
  Defaulting to   0.200000E+03 MB.
  Mixing parameter for charge density mixing has not been set.
  Using default: charge_mix_param =     0.0500.
  The mixing parameter will be adjusted in iteration number     2 of the first full s.c.f. cycle only.
  Algorithm-dependent basis array size parameters:
  | n_max_pulay                         :        8
  Maximum number of self-consistency iterations not provided.
  Presetting  1000 iterations.
  Presetting      1001 iterations before the initial mixing cycle
  is restarted anyway using the sc_init_iter criterion / keyword.
  Presetting a factor      1.000 between actual scf density residual
  and density convergence criterion sc_accuracy_rho below which sc_init_iter
  takes no effect.
  Calculation of forces was not defined in control.in. No forces will be calculated.
  Geometry relaxation not requested: no relaxation will be performed.
Requested aggregated energy tolerance for BFGS, but no relaxation. Ignoring input.
  No accuracy limit for integral partition fn. given. Defaulting to  0.1000E-14.
  No threshold value for u(r) in integrations given. Defaulting to  0.1000E-05.
  No occupation type (smearing scheme) given. Defaulting to Gaussian broadening, width =  0.1000E-01 eV.
  The width will be adjusted in iteration number     2 of the first full s.c.f. cycle only.
  S.C.F. convergence parameters will be adjusted in iteration number     2 of the first full s.c.f. cycle only.
  No accuracy for occupation numbers given. Defaulting to  0.1000E-12.
  No threshold value for occupation numbers given. Defaulting to  0.0000E+00.
  No accuracy for fermi level given. Defaulting to  0.1000E-19.
  Maximum # of iterations to find E_F not set. Defaulting to  200.
  Preferred method for the eigenvalue solver ('KS_method') not specified in 'control.in'.
  Calling BLACS routine to test compilation state
  Since ScaLAPACK support is enabled, defaulting to ELPA (via ELSI).
  Will not use alltoall communication since running on < 1024 CPUs.
  Threshold for basis singularities not set.
  Default threshold for basis singularities:  0.1000E-04
  partition_type (choice of integration weights) for integrals was not specified.
  | Using a version of the partition function of Stratmann and coworkers ('stratmann_sparse').
  | At each grid point, the set of atoms used to build the partition table is smoothly restricted to
  | only those atoms whose free-atom density would be non-zero at that grid point.
  Partitioning for Hartree potential was not defined. Using partition_type for integrals.
  | Adjusted default value of keyword multip_moments_threshold to:       0.10000000E-11
  | This value may affect high angular momentum components of the Hartree potential in periodic systems.
  Angular momentum expansion for Kerker preconditioner not set explicitly.
  | Using default value of   0
  No explicit requirement for turning off preconditioner.
  | By default, it will be turned off when the charge convergence reaches
  | sc_accuracy_rho  =   0.100000E-05
  | sc_accuracy_etot =   0.100000E-05
  No special mixing parameter while Kerker preconditioner is on.
  Using default: charge_mix_param =     0.0500.
  No q(lm)/r^(l+1) cutoff set for long-range Hartree potential.
  | Using default value of  0.100000E-09 .
  | Verify using the multipole_threshold keyword.
  Defaulting to new monopole extrapolation.
  Density update method: automatic selection selected.
  Using density matrix based charge density update.
  Using density matrix based charge density update.
  Using packed matrix style: index .
  Defaulting to use time-reversal symmetry for k-point grid.
  Charge integration errors on the 3D integration grid will be compensated
  by explicit normalization and distribution of residual charges.
  Use the "compensate_multipole_errors" flag to change this behaviour.
  Using the following vdw_convergence_threshold for supercell sums
  over the Tkatchenko-Scheffler correction:  0.100000E-05 eV.
 
  Consistency checks for the contents of geometry.in are next.
 

  Range separation radius for Ewald summation (hartree_convergence_parameter):      5.00000000 bohr.
  Number of empty states per atom not set in control.in - providing a guess from actual geometry.
  | Total number of empty states used during s.c.f. cycle:      783
  If you use a very high smearing, use empty_states (per atom!) in control.in to increase this value.

  Structure-dependent array size parameters: 
  | Maximum number of distinct radial functions  :       41
  | Maximum number of basis functions            :     6649
  | Number of Kohn-Sham states (occupied + empty):     4171
------------------------------------------------------------

------------------------------------------------------------
          Preparing all fixed parts of the calculation.
------------------------------------------------------------
  Determining machine precision:
    2.225073858507201E-308
  Setting up grids for atomic and cluster calculations.

  Creating wave function, potential, and density for free atoms.
  Runtime choices for atomic solver:
  | atomic solver xc        : PBE
  | compute density gradient: 1
  | compute kinetic density : F

  Species: Au

  List of occupied orbitals and eigenvalues:
    n    l              occ      energy [Ha]    energy [eV]
    1    0           2.0000     -3256.434633    -88612.0949
    2    0           2.0000      -533.658033    -14521.5739
    3    0           2.0000      -124.235224     -3380.6125
    4    0           2.0000       -26.846951      -730.5427
    5    0           2.0000        -3.977367      -108.2297
    6    0           1.0000        -0.210392        -5.7251
    2    1           6.0000      -460.387254    -12527.7746
    3    1           6.0000      -103.452063     -2815.0739
    4    1           6.0000       -20.078917      -546.3751
    5    1           6.0000        -2.192843       -59.6703
    3    2          10.0000       -81.367955     -2214.1347
    4    2          10.0000       -11.978294      -325.9460
    5    2          10.0000        -0.251979        -6.8567
    4    3          14.0000        -2.988656       -81.3255


  Species: Pd

  List of occupied orbitals and eigenvalues:
    n    l              occ      energy [Ha]    energy [eV]
    1    0           2.0000      -913.269104    -24851.3168
    2    0           2.0000      -130.434372     -3549.2998
    3    0           2.0000       -23.521804      -640.0609
    4    0           2.0000        -3.256918       -88.6253
    5    0           1.0000        -0.157260        -4.2793
    2    1           6.0000      -116.910756     -3181.3035
    3    1           6.0000       -19.103344      -519.8284
    4    1           6.0000        -1.998052       -54.3697
    3    2          10.0000       -12.098182      -329.2083
    4    2           9.0000        -0.243389        -6.6230


  Species: O

  List of occupied orbitals and eigenvalues:
    n    l              occ      energy [Ha]    energy [eV]
    1    0           2.0000       -18.927378      -515.0401
    2    0           2.0000        -0.880539       -23.9607
    2    1           4.0000        -0.331811        -9.0290


  Adding cutoff potential to free-atom effective potential.
  Creating fixed part of basis set: Ionic, confined, hydrogenic.
 
  Au                   ion:

  List of free ionic orbitals and eigenvalues:
    n    l      energy [Ha]    energy [eV]
    1    0     -3257.305345    -88635.7882
    2    0      -534.468969    -14543.6406
    3    0      -125.037161     -3402.4343
    4    0       -27.646714      -752.3054
    5    0        -4.773414      -129.8912
    2    1      -461.196653    -12549.7994
    3    1      -104.253556     -2836.8836
    4    1       -20.878488      -568.1326
    5    1        -2.984283       -81.2065
    3    2       -82.168946     -2235.9308
    4    2       -12.777596      -347.6961
    5    2        -1.004504       -27.3340
    4    3        -3.787521      -103.0637


  List of ionic basis orbitals and eigenvalues:
    n    l      energy [Ha]    energy [eV]    outer radius [A]
    6    1        -0.536435       -14.5971       5.411271
    6    0        -0.835588       -22.7375       5.090413

 
  Au                   hydrogenic:
 
  List of hydrogenic basis orbitals: 
    n    l      effective z      eigenvalue [eV]  inner max. [A]     outer max. [A]     outer radius [A]   
    4    3         7.400000       -46.5653           1.145580           1.145580           4.907105
    5    4        10.000000       -54.4226           1.326589           1.326589           5.028562
    6    5        12.800000       -61.9208           1.480879           1.480879           5.153025
    3    2         2.500000        -9.3396           1.868078           1.868078           5.477829
 
 
  Pd                   ion:

  List of free ionic orbitals and eigenvalues:
    n    l      energy [Ha]    energy [eV]
    1    0      -914.099884    -24873.9234
    2    0      -131.248265     -3571.4470
    3    0       -24.332473      -662.1203
    4    0        -4.059276      -110.4585
    2    1      -117.724296     -3203.4411
    3    1       -19.913908      -541.8850
    4    1        -2.795328       -76.0648
    3    2       -12.908733      -351.2645
    4    2        -1.004248       -27.3270


  List of ionic basis orbitals and eigenvalues:
    n    l      energy [Ha]    energy [eV]    outer radius [A]
    5    1        -0.516938       -14.0666       5.427025

 
  Pd                   hydrogenic:
 
  List of hydrogenic basis orbitals: 
    n    l      effective z      eigenvalue [eV]  inner max. [A]     outer max. [A]     outer radius [A]   
    4    3         8.000000       -54.4226           1.054686           1.054686           4.629581
    5    4        10.000000       -54.4226           1.330451           1.330451           5.043202
    3    0         2.600000        -9.8948           0.150992           2.606197           5.493778
    3    2         2.500000        -9.3396           1.873517           1.873517           5.493778
 
 
  O                    hydrogenic:
 
  List of hydrogenic basis orbitals: 
    n    l      effective z      eigenvalue [eV]  inner max. [A]     outer max. [A]     outer radius [A]   
    2    1         1.800000       -11.0118           1.178562           1.178562           5.432602
    3    2         7.600000       -87.3182           0.624125           0.624125           3.541477
    3    0         6.400000       -61.9209           0.061167           1.081902           4.306578
 
  Creating atomic-like basis functions for current effective potential.

  Species Au                  :

  List of atomic basis orbitals and eigenvalues:
    n    l      energy [Ha]    energy [eV]    outer radius [A]
    1    0     -3256.434633    -88612.0949       0.120816
    2    0      -533.658033    -14521.5739       0.313506
    3    0      -124.235224     -3380.6125       0.652830
    4    0       -26.846951      -730.5427       1.359424
    5    0        -3.977367      -108.2297       3.318406
    6    0        -0.210392        -5.7251       5.411271
    2    1      -460.387254    -12527.7746       0.329217
    3    1      -103.452063     -2815.0739       0.702515
    4    1       -20.078917      -546.3751       1.536198
    5    1        -2.192843       -59.6703       4.237546
    3    2       -81.367955     -2214.1347       0.755981
    4    2       -11.978294      -325.9460       1.868078
    5    2        -0.251979        -6.8567       5.345521
    4    3        -2.988656       -81.3255       3.160040


  Species Pd                  :

  List of atomic basis orbitals and eigenvalues:
    n    l      energy [Ha]    energy [eV]    outer radius [A]
    1    0      -913.269104    -24851.3168       0.223280
    2    0      -130.434372     -3549.2998       0.615909
    3    0       -23.521804      -640.0609       1.414312
    4    0        -3.256918       -88.6253       3.581357
    5    0        -0.157260        -4.2793       5.427025
    2    1      -116.910756     -3181.3035       0.631154
    3    1       -19.103344      -519.8284       1.540671
    4    1        -1.998052       -54.3697       4.408641
    3    2       -12.098182      -329.2083       1.806051
    4    2        -0.243389        -6.6230       5.361084


  Species O                   :

  List of atomic basis orbitals and eigenvalues:
    n    l      energy [Ha]    energy [eV]    outer radius [A]
    1    0       -18.927378      -515.0401       1.415765
    2    0        -0.880539       -23.9607       5.048385
    2    1        -0.331811        -9.0290       5.301386

  Assembling full basis from fixed parts.
  | Species Au :   atomic orbital   1 s accepted.
  | Species Au :   atomic orbital   2 s accepted.
  | Species Au :   atomic orbital   3 s accepted.
  | Species Au :   atomic orbital   4 s accepted.
  | Species Au :   atomic orbital   5 s accepted.
  | Species Au :    ionic orbital   6 s accepted.
  | Species Au :   atomic orbital   6 s accepted.
  | Species Au :   atomic orbital   2 p accepted.
  | Species Au :   atomic orbital   3 p accepted.
  | Species Au :   atomic orbital   4 p accepted.
  | Species Au :   atomic orbital   5 p accepted.
  | Species Au :    ionic orbital   6 p accepted.
  | Species Au :   atomic orbital   3 d accepted.
  | Species Au :   atomic orbital   4 d accepted.
  | Species Au :   atomic orbital   5 d accepted.
  | Species Au :    hydro orbital   3 d accepted.
  | Species Au :   atomic orbital   4 f accepted.
  | Species Au :    hydro orbital   4 f accepted.
  | Species Au :    hydro orbital   5 g accepted.
  | Species Au :    hydro orbital   6 h accepted.
  | Species Pd :   atomic orbital   1 s accepted.
  | Species Pd :   atomic orbital   2 s accepted.
  | Species Pd :   atomic orbital   3 s accepted.
  | Species Pd :   atomic orbital   4 s accepted.
  | Species Pd :   atomic orbital   5 s accepted.
  | Species Pd :    hydro orbital   3 s accepted.
  | Species Pd :   atomic orbital   2 p accepted.
  | Species Pd :   atomic orbital   3 p accepted.
  | Species Pd :   atomic orbital   4 p accepted.
  | Species Pd :    ionic orbital   5 p accepted.
  | Species Pd :   atomic orbital   3 d accepted.
  | Species Pd :   atomic orbital   4 d accepted.
  | Species Pd :    hydro orbital   3 d accepted.
  | Species Pd :    hydro orbital   4 f accepted.
  | Species Pd :    hydro orbital   5 g accepted.
  | Species O :   atomic orbital   1 s accepted.
  | Species O :    hydro orbital   3 s accepted.
  | Species O :   atomic orbital   2 s accepted.
  | Species O :   atomic orbital   2 p accepted.
  | Species O :    hydro orbital   2 p accepted.
  | Species O :    hydro orbital   3 d accepted.
 
  Basis size parameters after reduction:
  | Total number of radial functions:       41
  | Total number of basis functions :     6649
 
  Per-task memory consumption for arrays in subroutine allocate_ext:
  |          15.770700MB.
  Testing on-site integration grid accuracy.
  |  Species  Function  <phi|h_atom|phi> (log., in eV)  <phi|h_atom|phi> (rad., in eV)
           1        1             -88612.0949139707             -88612.0747293473
           1        2             -14521.5739437942             -14521.5735408178
           1        3              -3380.6124545399              -3380.6124173630
[...]
  |                                  0.00109876      -0.13839631       0.00487194
  |                                  0.00235403       0.00487194      -0.07199130
  ----------------------------------------------------------------------
  | Atom    88: Au
  |   Hirshfeld charge        :      0.01190491
  |   Free atom volume        :    128.21582128
  |   Hirshfeld volume        :    133.08857995
  |   Hirshfeld dipole vector :     -0.01038808       0.00858057       0.03506484
  |   Hirshfeld dipole moment :      0.03756436
  |   Hirshfeld second moments:     -0.14457979      -0.00219301      -0.00554119
  |                                 -0.00219301      -0.14289327       0.00444792
  |                                 -0.00554119       0.00444792      -0.08518679
  ----------------------------------------------------------------------
  | Atom    89: Au
  |   Hirshfeld charge        :      0.00133987
  |   Free atom volume        :    128.21582128
  |   Hirshfeld volume        :    133.32871514
  |   Hirshfeld dipole vector :     -0.00188318      -0.00027972       0.03243921
  |   Hirshfeld dipole moment :      0.03249503
  |   Hirshfeld second moments:     -0.14995994      -0.00063502      -0.00050533
  |                                 -0.00063502      -0.14960420       0.00030669
  |                                 -0.00050533       0.00030669      -0.09320231
  ----------------------------------------------------------------------
  | Atom    90: Au
  |   Hirshfeld charge        :      0.01848378
  |   Free atom volume        :    128.21582128
  |   Hirshfeld volume        :    132.80257741
  |   Hirshfeld dipole vector :      0.02087280       0.01125650       0.05797819
  |   Hirshfeld dipole moment :      0.06264067
  |   Hirshfeld second moments:     -0.13569565       0.00505917       0.01649384
  |                                  0.00505917      -0.13821469       0.00688030
  |                                  0.01649384       0.00688030      -0.07094814
  ----------------------------------------------------------------------
  | Atom    91: Au
  |   Hirshfeld charge        :      0.06562637
  |   Free atom volume        :    128.21582128
  |   Hirshfeld volume        :    132.32459804
  |   Hirshfeld dipole vector :     -0.00614231       0.02872580       0.07484272
  |   Hirshfeld dipole moment :      0.08040107
  |   Hirshfeld second moments:     -0.12075544      -0.00645195      -0.00434807
  |                                 -0.00645195      -0.11476280       0.01471846
  |                                 -0.00434807       0.01471846      -0.05423884
  ----------------------------------------------------------------------
  | Atom    92: Au
  |   Hirshfeld charge        :      0.01336071
  |   Free atom volume        :    128.21582128
  |   Hirshfeld volume        :    132.93786963
  |   Hirshfeld dipole vector :     -0.01193518       0.00374787       0.04458672
  |   Hirshfeld dipole moment :      0.04630843
  |   Hirshfeld second moments:     -0.13859640      -0.00139209      -0.00957287
  |                                 -0.00139209      -0.14476798       0.00407759
  |                                 -0.00957287       0.00407759      -0.07822545
  ----------------------------------------------------------------------
  | Atom    93: Au
  |   Hirshfeld charge        :      0.00374070
  |   Free atom volume        :    128.21582128
  |   Hirshfeld volume        :    133.08301876
  |   Hirshfeld dipole vector :      0.00846231      -0.00172505       0.04590764
  |   Hirshfeld dipole moment :      0.04671293
  |   Hirshfeld second moments:     -0.14489965      -0.00117173       0.01113142
  |                                 -0.00117173      -0.14934648      -0.00130394
  |                                  0.01113142      -0.00130394      -0.08169873
  ----------------------------------------------------------------------
  | Atom    94: Au
  |   Hirshfeld charge        :      0.05794233
  |   Free atom volume        :    128.21582128
  |   Hirshfeld volume        :    132.50244791
  |   Hirshfeld dipole vector :      0.01442072      -0.03569354       0.07943453
  |   Hirshfeld dipole moment :      0.08827134
  |   Hirshfeld second moments:     -0.12606589      -0.00818487       0.00497481
  |                                 -0.00818487      -0.12259597      -0.01434013
  |                                  0.00497481      -0.01434013      -0.05891983
  ----------------------------------------------------------------------
  | Atom    95: Au
  |   Hirshfeld charge        :      0.03014294
  |   Free atom volume        :    128.21582128
  |   Hirshfeld volume        :    132.42645188
  |   Hirshfeld dipole vector :     -0.02068012      -0.01209342       0.07028367
  |   Hirshfeld dipole moment :      0.07425438
  |   Hirshfeld second moments:     -0.12694547       0.00596028      -0.01469543
  |                                  0.00596028      -0.13107413      -0.00686255
  |                                 -0.01469543      -0.00686255      -0.05418791
  ----------------------------------------------------------------------
  | Atom    96: Au
  |   Hirshfeld charge        :      0.01884214
  |   Free atom volume        :    128.21582128
  |   Hirshfeld volume        :    133.17763494
  |   Hirshfeld dipole vector :     -0.00586616       0.00100548       0.03348785
  |   Hirshfeld dipole moment :      0.03401263
  |   Hirshfeld second moments:     -0.14305616      -0.00126186      -0.00434033
  |                                 -0.00126186      -0.14437621       0.00094125
  |                                 -0.00434033       0.00094125      -0.08704856
  ----------------------------------------------------------------------
  | Atom    97: O
  |   Hirshfeld charge        :     -0.12594861
  |   Free atom volume        :     23.74229847
  |   Hirshfeld volume        :     23.83947168
  |   Hirshfeld dipole vector :      0.04481009      -0.03804814      -0.00984804
  |   Hirshfeld dipole moment :      0.05960359
  |   Hirshfeld second moments:     -0.00683183      -0.02978744       0.00053470
  |                                 -0.02978744      -0.00890664      -0.00657088
  |                                  0.00053470      -0.00657088      -0.02858444
  ----------------------------------------------------------------------
  | Atom    98: O
  |   Hirshfeld charge        :     -0.13187119
  |   Free atom volume        :     23.74229847
  |   Hirshfeld volume        :     23.89152067
  |   Hirshfeld dipole vector :     -0.04634012       0.03807296      -0.00804981
  |   Hirshfeld dipole moment :      0.06051245
  |   Hirshfeld second moments:     -0.00764967      -0.02971918      -0.00055161
  |                                 -0.02971918      -0.00897599       0.00811805
  |                                 -0.00055161       0.00811805      -0.03364281
  ----------------------------------------------------------------------

  Converging periodic supercell size for vdw calculation.
  Convergence accuracy (and time!) can be adjusted using the vdw_convergence_threshold keyword.
  | Shell number:     1
  |   VDW energy change:  -0.125463E+02 eV.
  |   Not converged.
  | Shell number:     2
  |   VDW energy change:  -0.143428E+00 eV.
  |   Not converged.
  | Shell number:     3
  |   VDW energy change:  -0.154611E-01 eV.
  |   Not converged.
  | Shell number:     4
  |   VDW energy change:  -0.392374E-02 eV.
  |   Not converged.
  | Shell number:     5
  |   VDW energy change:  -0.147545E-02 eV.
  |   Not converged.
  | Shell number:     6
  |   VDW energy change:  -0.686462E-03 eV.
  |   Not converged.
  | Shell number:     7
  |   VDW energy change:  -0.364161E-03 eV.
  |   Not converged.
  | Shell number:     8
  |   VDW energy change:  -0.211382E-03 eV.
  |   Not converged.
  | Shell number:     9
  |   VDW energy change:  -0.131141E-03 eV.
  |   Not converged.
  | Shell number:    10
  |   VDW energy change:  -0.856688E-04 eV.
  |   Not converged.
  | Shell number:    11
  |   VDW energy change:  -0.583278E-04 eV.
  |   Not converged.
  | Shell number:    12
  |   VDW energy change:  -0.410848E-04 eV.
  |   Not converged.
  | Shell number:    13
  |   VDW energy change:  -0.297731E-04 eV.
  |   Not converged.
  | Shell number:    14
  |   VDW energy change:  -0.221027E-04 eV.
  |   Not converged.
  | Shell number:    15
  |   VDW energy change:  -0.167524E-04 eV.
  |   Not converged.
  | Shell number:    16
  |   VDW energy change:  -0.129283E-04 eV.
  |   Not converged.
  | Shell number:    17
  |   VDW energy change:  -0.101362E-04 eV.
  |   Not converged.
  | Shell number:    18
  |   VDW energy change:  -0.805913E-05 eV.
  |   Not converged.
  | Shell number:    19
  |   VDW energy change:  -0.648808E-05 eV.
  |   Not converged.
  | Shell number:    20
  |   VDW energy change:  -0.528201E-05 eV.
  |   Not converged.
  | Shell number:    21
  |   VDW energy change:  -0.434371E-05 eV.
  |   Not converged.
  | Shell number:    22
  |   VDW energy change:  -0.360487E-05 eV.
  |   Not converged.
  | Shell number:    23
  |   VDW energy change:  -0.301669E-05 eV.
  |   Not converged.
  | Shell number:    24
  |   VDW energy change:  -0.254377E-05 eV.
  |   Not converged.
  | Shell number:    25
  |   VDW energy change:  -0.216001E-05 eV.
  |   Not converged.
  | Shell number:    26
  |   VDW energy change:  -0.184598E-05 eV.
  |   Not converged.
  | Shell number:    27
  |   VDW energy change:  -0.158702E-05 eV.
  |   Not converged.
  | Shell number:    28
  |   VDW energy change:  -0.137192E-05 eV.
  |   Not converged.
  | Shell number:    29
  |   VDW energy change:  -0.119207E-05 eV.
  |   Not converged.
  | Shell number:    30
  |   VDW energy change:  -0.104076E-05 eV.
  |   Not converged.
  | Shell number:    31
  |   VDW energy change:  -0.912708E-06 eV.
  |   Converged.

  Total energy components:
  | Sum of eigenvalues            :     -957204.44581000 Ha   -26046858.22004526 eV
  | XC energy correction          :      -29757.10038554 Ha     -809731.90019612 eV
  | XC potential correction       :       38909.43848844 Ha     1058779.69138792 eV
  | Free-atom electrostatic energy:     -577693.44367006 Ha   -15719838.41883520 eV
  | Hartree energy correction     :         369.68738538 Ha       10059.70558831 eV
  | vdW energy correction         :          -0.95243583 Ha         -25.91709758 eV
  | Entropy correction            :          -0.00081935 Ha          -0.02229555 eV
  | ---------------------------
  | Total energy                  :    -1525376.81642762 Ha   -41507615.05919793 eV
  | Total energy, T -> 0          :    -1525376.81724697 Ha   -41507615.08149347 eV  <-- do not rely on this value for anything but (periodic) metals
  | Electronic free energy        :    -1525376.81806631 Ha   -41507615.10378902 eV

  Derived energy quantities:
  | Kinetic energy                :     1700916.81586724 Ha    46284301.47907922 eV
  | Electrostatic energy          :    -3196535.57947349 Ha   -86982158.72098346 eV
  | Energy correction for multipole
  | error in Hartree potential    :          -0.01641324 Ha          -0.44662703 eV
  | Sum of eigenvalues per atom                           :     -265784.26755148 eV
  | Total energy (T->0) per atom                          :     -423547.09266830 eV  <-- do not rely on this value for anything but (periodic) metals
  | Electronic free energy per atom                       :     -423547.09289581 eV
  Timings for VdW correction (Tkatchenko-Scheffler 2009 or later):
  | CPU time:       33.335 s, Wall clock time:       33.336 s.

  Energy and forces in a compact form:
  | Total energy uncorrected      :         -0.415076150591979E+08 eV
  | Total energy corrected        :         -0.415076150814935E+08 eV  <-- do not rely on this value for anything but (periodic) metals
  | Electronic free energy        :         -0.415076151037890E+08 eV

  ------------------------------------ 
  Start decomposition of the XC Energy 
  ------------------------------------ 
  X and C from original XC functional choice 
  Hartree-Fock Energy :          0.000000000 Ha              0.000000000 eV
  X Energy            :     -29349.406574801 Ha        -798637.987153735 eV
  C Energy            :       -407.693810743 Ha         -11093.913042385 eV
  XC Energy w/o HF    :     -29757.100385543 Ha        -809731.900196120 eV
  Total XC Energy     :     -29757.100385543 Ha        -809731.900196120 eV
  ------------------------------------ 
  LDA X and C from self-consistent density 
  X Energy LDA        :     -28148.146128412 Ha        -765950.027262410 eV
  C Energy LDA        :       -698.076317909 Ha         -18995.623096973 eV
  ------------------------------------ 
  End decomposition of the XC Energy 
  ------------------------------------ 

------------------------------------------------------------

------------------------------------------------------------------------------
  Final output of selected total energy values:

  The following output summarizes some interesting total energy values
  at the end of a run (AFTER all relaxation, molecular dynamics, etc.).

  | Total energy of the DFT / Hartree-Fock s.c.f. calculation      :      -41507615.059197925 eV
  | Final zero-broadening corrected energy (caution - metals only) :      -41507615.081493475 eV
  | For reference only, the value of 1 Hartree used in FHI-aims is :             27.211384500 eV
  | For reference only, the overall average (free atom contribution
  | + realspace contribution) of the electrostatic potential after
  | s.c.f. convergence is                                          :             -9.885856493 eV

  Before relying on these values, please be sure to understand exactly which
  total energy value is referred to by a given number. Different objects may
  all carry the same name 'total energy'. Definitions:

  Total energy of the DFT / Hartree-Fock s.c.f. calculation:
  | Note that this energy does not include ANY quantities calculated after the
  | s.c.f. cycle, in particular not ANY RPA, MP2, etc. many-body perturbation terms.

  Final zero-broadening corrected energy:
  | For metallic systems only, a broadening of the occupation numbers at the Fermi
  | level can be extrapolated back to zero broadening by an electron-gas inspired
  | formula. For all systems that are not real metals, this value can be
  | meaningless and should be avoided.

------------------------------------------------------------------------------
  Methods described in the following list of references were used in this FHI-aims run.
  If you publish the results, please make sure to cite these reference if they apply.
  FHI-aims is an academic code, and for our developers (often, Ph.D. students
  and postdocs), scientific credit in the community is essential.
  Thank you for helping us!

  For any use of FHI-aims, please cite:

    Volker Blum, Ralf Gehrke, Felix Hanke, Paula Havu, Ville Havu,
    Xinguo Ren, Karsten Reuter, and Matthias Scheffler
    'Ab initio molecular simulations with numeric atom-centered orbitals'
    Computer Physics Communications 180, 2175-2196 (2009)
    http://doi.org/10.1016/j.cpc.2009.06.022


  The provided symmetry information was generated with SPGlib:

    Atsushi Togo, Yusuke Seto, Dimitar Pashov
    SPGlib 1.7.3 obtained from http://spglib.sourceforge.net
    Copyright (C) 2008 Atsushi Togo


  The ELSI infrastructure was used in your run to solve the Kohn-Sham electronic structure.
  Please check out http://elsi-interchange.org to learn more.
  If scalability is important for your project, please acknowledge ELSI by citing:

    V. W-z. Yu, F. Corsetti, A. Garcia, W. P. Huhn, M. Jacquelin, W. Jia,
    B. Lange, L. Lin, J. Lu, W. Mi, A. Seifitokaldani, A. Vazquez-Mayagoitia,
    C. Yang, H. Yang, and V. Blum
    'ELSI: A unified software interface for Kohn-Sham electronic structure solvers'
    Computer Physics Communications 222, 267-285 (2018).
    http://doi.org/10.1016/j.cpc.2017.09.007


  For the real-space grid partitioning and parallelization used in this calculation, please cite:

    Ville Havu, Volker Blum, Paula Havu, and Matthias Scheffler,
    'Efficient O(N) integration for all-electron electronic structure calculation'
    'using numerically tabulated basis functions'
    Journal of Computational Physics 228, 8367-8379 (2009).
    http://doi.org/10.1016/j.jcp.2009.08.008

  Of course, there are many other important community references, e.g., those cited in the
  above references. Our list is limited to references that describe implementations in the
  FHI-aims code. The reason is purely practical (length of this list) - please credit others as well.

   One or more s.c.f. cycles took more than 50 s.c.f. iterations.
   It might be worth adjusting your convergence settings. For example,
   metals need a larger broadening and a smaller "charge_mix_param" value than semiconductors.

------------------------------------------------------------
          Leaving FHI-aims.
          Date     :  20240113, Time     :  102646.006

          Computational steps:
          | Number of self-consistency cycles          :           74
          | Number of SCF (re)initializations          :            1

          Detailed time accounting                     :  max(cpu_time)    wall_clock(cpu1)
          | Total time                                  :    29682.702 s       29685.641 s
          | Preparation time                            :        0.622 s           0.623 s
          | Boundary condition initalization            :        1.185 s           1.186 s
          | Grid partitioning                           :        4.188 s           4.188 s
          | Preloading free-atom quantities on grid     :        3.174 s           3.173 s
          | Free-atom superposition energy              :        0.288 s           0.289 s
          | Total time for integrations                 :     1622.166 s        1622.214 s
          | Total time for solution of K.-S. equations  :    23897.453 s       23897.421 s
          | Total time for density update               :     3537.230 s        3537.324 s
          | Total time for mixing & preconditioning     :      169.016 s         168.949 s
          | Total time for Hartree multipole update     :        1.139 s           1.146 s
          | Total time for Hartree multipole sum        :      410.303 s         410.428 s
          | Total time for total energy evaluation      :        0.371 s           0.216 s
          | Total time for scaled ZORA corrections      :        0.000 s           0.000 s
          | Total time for vdW correction               :       33.335 s          33.336 s

          Partial memory accounting:
          | Residual value for overall tracked memory usage across tasks:     0.000000 MB (should be 0.000000 MB)
          | Peak values for overall tracked memory usage:
          |   Minimum:     1349.689 MB (on task  2 after allocating temp_ham_ovlp)
          |   Maximum:     1690.580 MB (on task  6 after allocating temp_ham_ovlp)
          |   Average:     1468.169 MB
          | Largest tracked array allocation:
          |   Minimum:      224.014 MB (ovlp_complex on task  2)
          |   Maximum:      337.645 MB (ovlp_complex on task  6)
          |   Average:      263.507 MB
          Note:  These values currently only include a subset of arrays which are explicitly tracked.
          The "true" memory usage will be greater.

          Have a nice day.
------------------------------------------------------------
